 Entering Gaussian System, Link 0=/software/kemi/g16C/Legacy/g16/g16
 Input=c3nh11.com
 Output=c3nh11.log
 Initial command:
 /software/kemi/g16C/Legacy/g16/l1.exe "/scratch/34938381/Gau-14744.inp" -scrdir="/scratch/34938381/"
 Entering Link 1 = /software/kemi/g16C/Legacy/g16/l1.exe PID=     14747.
  
 Copyright (c) 1988-2019, Gaussian, Inc.  All Rights Reserved.
  
 This is part of the Gaussian(R) 16 program.  It is based on
 the Gaussian(R) 09 system (copyright 2009, Gaussian, Inc.),
 the Gaussian(R) 03 system (copyright 2003, Gaussian, Inc.),
 the Gaussian(R) 98 system (copyright 1998, Gaussian, Inc.),
 the Gaussian(R) 94 system (copyright 1995, Gaussian, Inc.),
 the Gaussian 92(TM) system (copyright 1992, Gaussian, Inc.),
 the Gaussian 90(TM) system (copyright 1990, Gaussian, Inc.),
 the Gaussian 88(TM) system (copyright 1988, Gaussian, Inc.),
 the Gaussian 86(TM) system (copyright 1986, Carnegie Mellon
 University), and the Gaussian 82(TM) system (copyright 1983,
 Carnegie Mellon University). Gaussian is a federally registered
 trademark of Gaussian, Inc.
  
 This software contains proprietary and confidential information,
 including trade secrets, belonging to Gaussian, Inc.
  
 This software is provided under written license and may be
 used, copied, transmitted, or stored only in accord with that
 written license.
  
 The following legend is applicable only to US Government
 contracts under FAR:
  
                    RESTRICTED RIGHTS LEGEND
  
 Use, reproduction and disclosure by the US Government is
 subject to restrictions as set forth in subparagraphs (a)
 and (c) of the Commercial Computer Software - Restricted
 Rights clause in FAR 52.227-19.
  
 Gaussian, Inc.
 340 Quinnipiac St., Bldg. 40, Wallingford CT 06492
  
  
 ---------------------------------------------------------------
 Warning -- This program may not be used in any manner that
 competes with the business of Gaussian, Inc. or will provide
 assistance to any competitor of Gaussian, Inc.  The licensee
 of this program is prohibited from giving any competitor of
 Gaussian, Inc. access to this program.  By using this program,
 the user acknowledges that Gaussian, Inc. is engaged in the
 business of creating and licensing software in the field of
 computational chemistry and represents and warrants to the
 licensee that it is not a competitor of Gaussian, Inc. and that
 it will not use this program in any manner prohibited above.
 ---------------------------------------------------------------
  

 Cite this work as:
 Gaussian 16, Revision C.01,
 M. J. Frisch, G. W. Trucks, H. B. Schlegel, G. E. Scuseria, 
 M. A. Robb, J. R. Cheeseman, G. Scalmani, V. Barone, 
 G. A. Petersson, H. Nakatsuji, X. Li, M. Caricato, A. V. Marenich, 
 J. Bloino, B. G. Janesko, R. Gomperts, B. Mennucci, H. P. Hratchian, 
 J. V. Ortiz, A. F. Izmaylov, J. L. Sonnenberg, D. Williams-Young, 
 F. Ding, F. Lipparini, F. Egidi, J. Goings, B. Peng, A. Petrone, 
 T. Henderson, D. Ranasinghe, V. G. Zakrzewski, J. Gao, N. Rega, 
 G. Zheng, W. Liang, M. Hada, M. Ehara, K. Toyota, R. Fukuda, 
 J. Hasegawa, M. Ishida, T. Nakajima, Y. Honda, O. Kitao, H. Nakai, 
 T. Vreven, K. Throssell, J. A. Montgomery, Jr., J. E. Peralta, 
 F. Ogliaro, M. J. Bearpark, J. J. Heyd, E. N. Brothers, K. N. Kudin, 
 V. N. Staroverov, T. A. Keith, R. Kobayashi, J. Normand, 
 K. Raghavachari, A. P. Rendell, J. C. Burant, S. S. Iyengar, 
 J. Tomasi, M. Cossi, J. M. Millam, M. Klene, C. Adamo, R. Cammi, 
 J. W. Ochterski, R. L. Martin, K. Morokuma, O. Farkas, 
 J. B. Foresman, and D. J. Fox, Gaussian, Inc., Wallingford CT, 2019.
 
 ******************************************
 Gaussian 16:  EM64L-G16RevC.01  3-Jul-2019
                18-Jul-2022 
 ******************************************
 ----------------------
 # opt freq b3lyp/3-21g
 ----------------------
 1/18=20,19=15,26=3,38=1/1,3;
 2/9=110,12=2,17=6,18=5,40=1/2;
 3/5=5,11=2,25=1,30=1,71=1,74=-5/1,2,3;
 4//1;
 5/5=2,38=5/2;
 6/7=2,8=2,9=2,10=2,28=1/1;
 7//1,2,3,16;
 1/18=20,19=15,26=3/3(2);
 2/9=110/2;
 99//99;
 2/9=110/2;
 3/5=5,11=2,25=1,30=1,71=1,74=-5/1,2,3;
 4/5=5,16=3,69=1/1;
 5/5=2,38=5/2;
 7//1,2,3,16;
 1/18=20,19=15,26=3/3(-5);
 2/9=110/2;
 6/7=2,8=2,9=2,10=2,19=2,28=1/1;
 99/9=1/99;
 -----
 title
 -----
 Symbolic Z-matrix:
 Charge =  0 Multiplicity = 1
 C                    -0.8522   -0.15914   0. 
 H                    -0.49617  -1.16817   0.00021 
 H                    -0.49505   0.34492  -0.87365 
 H                    -1.9222   -0.15847  -0.00021 
 N                    -0.36201   0.53369   1.20025 
 H                     0.63799   0.53306   1.20045 
 H                    -0.69475   1.4767    1.20005 
 

 GradGradGradGradGradGradGradGradGradGradGradGradGradGradGradGradGradGrad
 Berny optimization.
 Initialization pass.
                           ----------------------------
                           !    Initial Parameters    !
                           ! (Angstroms and Degrees)  !
 --------------------------                            --------------------------
 ! Name  Definition              Value          Derivative Info.                !
 --------------------------------------------------------------------------------
 ! R1    R(1,2)                  1.07           estimate D2E/DX2                !
 ! R2    R(1,3)                  1.07           estimate D2E/DX2                !
 ! R3    R(1,4)                  1.07           estimate D2E/DX2                !
 ! R4    R(1,5)                  1.47           estimate D2E/DX2                !
 ! R5    R(5,6)                  1.0            estimate D2E/DX2                !
 ! R6    R(5,7)                  1.0            estimate D2E/DX2                !
 ! A1    A(2,1,3)              109.4716         estimate D2E/DX2                !
 ! A2    A(2,1,4)              109.471          estimate D2E/DX2                !
 ! A3    A(2,1,5)              109.4717         estimate D2E/DX2                !
 ! A4    A(3,1,4)              109.471          estimate D2E/DX2                !
 ! A5    A(3,1,5)              109.4712         estimate D2E/DX2                !
 ! A6    A(4,1,5)              109.4709         estimate D2E/DX2                !
 ! A7    A(1,5,6)              109.471          estimate D2E/DX2                !
 ! A8    A(1,5,7)              109.4714         estimate D2E/DX2                !
 ! A9    A(6,5,7)              109.4714         estimate D2E/DX2                !
 ! D1    D(2,1,5,6)             59.9999         estimate D2E/DX2                !
 ! D2    D(2,1,5,7)           -179.9999         estimate D2E/DX2                !
 ! D3    D(3,1,5,6)            -60.0008         estimate D2E/DX2                !
 ! D4    D(3,1,5,7)             59.9994         estimate D2E/DX2                !
 ! D5    D(4,1,5,6)            179.9997         estimate D2E/DX2                !
 ! D6    D(4,1,5,7)            -60.0001         estimate D2E/DX2                !
 --------------------------------------------------------------------------------
 Trust Radius=3.00D-01 FncErr=1.00D-07 GrdErr=1.00D-06 EigMax=2.50D+02 EigMin=1.00D-04
 Number of steps in this run=     31 maximum allowed number of steps=    100.
 GradGradGradGradGradGradGradGradGradGradGradGradGradGradGradGradGradGrad

                          Input orientation:                          
 ---------------------------------------------------------------------
 Center     Atomic      Atomic             Coordinates (Angstroms)
 Number     Number       Type             X           Y           Z
 ---------------------------------------------------------------------
      1          6           0       -0.852200   -0.159140    0.000000
      2          1           0       -0.496170   -1.168170    0.000210
      3          1           0       -0.495050    0.344920   -0.873650
      4          1           0       -1.922200   -0.158470   -0.000210
      5          7           0       -0.362010    0.533690    1.200250
      6          1           0        0.637990    0.533060    1.200450
      7          1           0       -0.694750    1.476700    1.200050
 ---------------------------------------------------------------------
                    Distance matrix (angstroms):
                    1          2          3          4          5
     1  C    0.000000
     2  H    1.070000   0.000000
     3  H    1.069999   1.747305   0.000000
     4  H    1.070000   1.747300   1.747300   0.000000
     5  N    1.470000   2.086725   2.086719   2.086716   0.000000
     6  H    2.034917   2.370881   2.370879   2.911077   1.000000
     7  H    2.034916   2.911080   2.370873   2.370873   0.999992
                    6          7
     6  H    0.000000
     7  H    1.632989   0.000000
 Stoichiometry    CH5N
 Framework group  C1[X(CH5N)]
 Deg. of freedom    15
 Full point group                 C1      NOp   1
 Largest Abelian subgroup         C1      NOp   1
 Largest concise Abelian subgroup C1      NOp   1
                         Standard orientation:                         
 ---------------------------------------------------------------------
 Center     Atomic      Atomic             Coordinates (Angstroms)
 Number     Number       Type             X           Y           Z
 ---------------------------------------------------------------------
      1          6           0       -0.714379    0.000001    0.013904
      2          1           0       -1.116274    0.873648   -0.455266
      3          1           0       -0.975996   -0.000008    1.051426
      4          1           0       -1.116263   -0.873651   -0.455268
      5          7           0        0.749291   -0.000001   -0.122362
      6          1           0        1.124884    0.816499    0.316111
      7          1           0        1.124886   -0.816490    0.316110
 ---------------------------------------------------------------------
 Rotational constants (GHZ):         105.6491890          23.0712634          22.0824171
 Standard basis: 3-21G (6D, 7F)
 There are    28 symmetry adapted cartesian basis functions of A   symmetry.
 There are    28 symmetry adapted basis functions of A   symmetry.
    28 basis functions,    45 primitive gaussians,    28 cartesian basis functions
     9 alpha electrons        9 beta electrons
       nuclear repulsion energy        42.3649173593 Hartrees.
 NAtoms=    7 NActive=    7 NUniq=    7 SFac= 1.00D+00 NAtFMM=   60 NAOKFM=F Big=F
 Integral buffers will be    131072 words long.
 Raffenetti 2 integral format.
 Two-electron integral symmetry is turned on.
 One-electron integrals computed using PRISM.
 NBasis=    28 RedAO= T EigKep=  2.45D-02  NBF=    28
 NBsUse=    28 1.00D-06 EigRej= -1.00D+00 NBFU=    28
 ExpMin= 1.83D-01 ExpMax= 2.43D+02 ExpMxC= 2.43D+02 IAcc=3 IRadAn=         5 AccDes= 0.00D+00
 Harris functional with IExCor=  402 and IRadAn=       5 diagonalized for initial guess.
 HarFok:  IExCor=  402 AccDes= 0.00D+00 IRadAn=         5 IDoV= 1 UseB2=F ITyADJ=14
 ICtDFT=  3500011 ScaDFX=  1.000000  1.000000  1.000000  1.000000
 FoFCou: FMM=F IPFlag=           0 FMFlag=      100000 FMFlg1=           0
         NFxFlg=           0 DoJE=T BraDBF=F KetDBF=T FulRan=T
         wScrn=  0.000000 ICntrl=       500 IOpCl=  0 I1Cent=   200000004 NGrid=           0
         NMat0=    1 NMatS0=      1 NMatT0=    0 NMatD0=    1 NMtDS0=    0 NMtDT0=    0
 Petite list used in FoFCou.
 Keep R1 ints in memory in canonical form, NReq=946920.
 Requested convergence on RMS density matrix=1.00D-08 within 128 cycles.
 Requested convergence on MAX density matrix=1.00D-06.
 Requested convergence on             energy=1.00D-06.
 No special actions if energy rises.
 Integral accuracy reduced to 1.0D-05 until final iterations.
 Initial convergence to 1.0D-05 achieved.  Increase integral accuracy.
 SCF Done:  E(RB3LYP) =  -95.3194040041     A.U. after   10 cycles
            NFock= 10  Conv=0.85D-08     -V/T= 2.0067

 **********************************************************************

            Population analysis using the SCF Density.

 **********************************************************************

 Orbital symmetries:
       Occupied  (A) (A) (A) (A) (A) (A) (A) (A) (A)
       Virtual   (A) (A) (A) (A) (A) (A) (A) (A) (A) (A) (A) (A)
                 (A) (A) (A) (A) (A) (A) (A)
 The electronic state is 1-A.
 Alpha  occ. eigenvalues --  -14.20406 -10.12318  -0.87051  -0.65878  -0.48889
 Alpha  occ. eigenvalues --   -0.42818  -0.40136  -0.37111  -0.19798
 Alpha virt. eigenvalues --    0.11631   0.17918   0.18468   0.20661   0.22259
 Alpha virt. eigenvalues --    0.26228   0.71554   0.72087   0.74757   0.99111
 Alpha virt. eigenvalues --    0.99748   1.03569   1.05828   1.10183   1.21656
 Alpha virt. eigenvalues --    1.32030   1.34391   1.71820   2.52179
          Condensed to atoms (all electrons):
               1          2          3          4          5          6
     1  C    5.157650   0.369814   0.348674   0.369814   0.292670  -0.053469
     2  H    0.369814   0.525582  -0.042346  -0.023938  -0.033152  -0.003825
     3  H    0.348674  -0.042346   0.630227  -0.042346  -0.055453  -0.002224
     4  H    0.369814  -0.023938  -0.042346   0.525584  -0.033153   0.004843
     5  N    0.292670  -0.033152  -0.055453  -0.033153   6.829127   0.330061
     6  H   -0.053469  -0.003825  -0.002224   0.004843   0.330061   0.504107
     7  H   -0.053468   0.004843  -0.002224  -0.003825   0.330062  -0.039550
               7
     1  C   -0.053468
     2  H    0.004843
     3  H   -0.002224
     4  H   -0.003825
     5  N    0.330062
     6  H   -0.039550
     7  H    0.504104
 Mulliken charges:
               1
     1  C   -0.431686
     2  H    0.203021
     3  H    0.165691
     4  H    0.203021
     5  N   -0.660160
     6  H    0.260055
     7  H    0.260058
 Sum of Mulliken charges =  -0.00000
 Mulliken charges with hydrogens summed into heavy atoms:
               1
     1  C    0.140048
     5  N   -0.140048
 Electronic spatial extent (au):  <R**2>=             93.3157
 Charge=             -0.0000 electrons
 Dipole moment (field-independent basis, Debye):
    X=             -0.3123    Y=             -0.0000    Z=              1.5755  Tot=              1.6061
 Quadrupole moment (field-independent basis, Debye-Ang):
   XX=            -13.5118   YY=            -12.2500   ZZ=            -14.9591
   XY=             -0.0000   XZ=              2.2075   YZ=             -0.0000
 Traceless Quadrupole moment (field-independent basis, Debye-Ang):
   XX=              0.0618   YY=              1.3236   ZZ=             -1.3855
   XY=             -0.0000   XZ=              2.2075   YZ=             -0.0000
 Octapole moment (field-independent basis, Debye-Ang**2):
  XXX=              2.9909  YYY=              0.0000  ZZZ=              1.4006  XYY=              1.8148
  XXY=              0.0000  XXZ=              1.8367  XZZ=             -0.1771  YZZ=             -0.0000
  YYZ=              0.2142  XYZ=              0.0000
 Hexadecapole moment (field-independent basis, Debye-Ang**3):
 XXXX=            -70.1821 YYYY=            -21.2770 ZZZZ=            -21.3085 XXXY=             -0.0001
 XXXZ=              3.5955 YYYX=             -0.0000 YYYZ=              0.0000 ZZZX=              1.4181
 ZZZY=             -0.0000 XXYY=            -13.2789 XXZZ=            -15.9384 YYZZ=             -7.0747
 XXYZ=             -0.0000 YYXZ=              1.6655 ZZXY=             -0.0000
 N-N= 4.236491735929D+01 E-N=-3.062949712124D+02  KE= 9.468810733674D+01
 Calling FoFJK, ICntrl=      2127 FMM=F ISym2X=0 I1Cent= 0 IOpClX= 0 NMat=1 NMatS=1 NMatT=0.
 ***** Axes restored to original set *****
 -------------------------------------------------------------------
 Center     Atomic                   Forces (Hartrees/Bohr)
 Number     Number              X              Y              Z
 -------------------------------------------------------------------
      1        6           0.007083045    0.010012038    0.009617546
      2        1           0.003842643   -0.016021329   -0.000597818
      3        1           0.001828939    0.002570697   -0.027155725
      4        1          -0.016387804   -0.001698134   -0.000604462
      5        7          -0.011815906   -0.016697288    0.010216261
      6        1           0.021626196    0.001071526    0.004266580
      7        1          -0.006177113    0.020762491    0.004257617
 -------------------------------------------------------------------
 Cartesian Forces:  Max     0.027155725 RMS     0.012014091

 GradGradGradGradGradGradGradGradGradGradGradGradGradGradGradGradGradGrad
 Berny optimization.
 FormGI is forming the generalized inverse of G from B-inverse, IUseBI=4.
 Internal  Forces:  Max     0.023994174 RMS     0.012032659
 Search for a local minimum.
 Step number   1 out of a maximum of   31
 All quantities printed in internal units (Hartrees-Bohrs-Radians)
 Mixed Optimization -- RFO/linear search
 Second derivative matrix not updated -- first step.
 ITU=  0
     Eigenvalues ---    0.00766   0.04248   0.07537   0.07537   0.16000
     Eigenvalues ---    0.16000   0.16000   0.16000   0.16000   0.35740
     Eigenvalues ---    0.37230   0.37230   0.37230   0.47688   0.47690
 RFO step:  Lambda=-1.01358405D-02 EMin= 7.65815903D-03
 Linear search not attempted -- first point.
 Iteration  1 RMS(Cart)=  0.07496025 RMS(Int)=  0.00336876
 Iteration  2 RMS(Cart)=  0.00263622 RMS(Int)=  0.00101868
 Iteration  3 RMS(Cart)=  0.00001091 RMS(Int)=  0.00101866
 Iteration  4 RMS(Cart)=  0.00000001 RMS(Int)=  0.00101866
 Variable       Old X    -DE/DX   Delta X   Delta X   Delta X     New X
                                 (Linear)    (Quad)   (Total)
    R1        2.02201   0.01639   0.00000   0.04285   0.04285   2.06485
    R2        2.02200   0.02399   0.00000   0.06274   0.06274   2.08474
    R3        2.02201   0.01639   0.00000   0.04285   0.04285   2.06486
    R4        2.77790   0.01893   0.00000   0.05152   0.05152   2.82941
    R5        1.88973   0.02163   0.00000   0.04441   0.04441   1.93413
    R6        1.88971   0.02163   0.00000   0.04442   0.04442   1.93413
    A1        1.91064  -0.00669   0.00000  -0.02878  -0.02983   1.88081
    A2        1.91063  -0.00264   0.00000  -0.03663  -0.03745   1.87317
    A3        1.91064  -0.00189   0.00000  -0.01638  -0.01738   1.89326
    A4        1.91063  -0.00669   0.00000  -0.02878  -0.02982   1.88081
    A5        1.91063   0.01980   0.00000   0.12693   0.12582   2.03645
    A6        1.91063  -0.00189   0.00000  -0.01636  -0.01736   1.89326
    A7        1.91063   0.00624   0.00000   0.04859   0.04699   1.95762
    A8        1.91064   0.00624   0.00000   0.04858   0.04698   1.95762
    A9        1.91064  -0.00352   0.00000   0.00312   0.00036   1.91099
    D1        1.04720   0.00111   0.00000   0.00079   0.00014   1.04734
    D2       -3.14159   0.00444   0.00000   0.06412   0.06487  -3.07672
    D3       -1.04721  -0.00167   0.00000  -0.03166  -0.03235  -1.07957
    D4        1.04719   0.00167   0.00000   0.03167   0.03237   1.07956
    D5        3.14159  -0.00444   0.00000  -0.06412  -0.06487   3.07672
    D6       -1.04720  -0.00111   0.00000  -0.00080  -0.00015  -1.04735
         Item               Value     Threshold  Converged?
 Maximum Force            0.023994     0.000450     NO 
 RMS     Force            0.012033     0.000300     NO 
 Maximum Displacement     0.225912     0.001800     NO 
 RMS     Displacement     0.075168     0.001200     NO 
 Predicted change in Energy=-5.337060D-03
 GradGradGradGradGradGradGradGradGradGradGradGradGradGradGradGradGradGrad

                          Input orientation:                          
 ---------------------------------------------------------------------
 Center     Atomic      Atomic             Coordinates (Angstroms)
 Number     Number       Type             X           Y           Z
 ---------------------------------------------------------------------
      1          6           0       -0.841572   -0.144135   -0.027014
      2          1           0       -0.497099   -1.180806   -0.002761
      3          1           0       -0.533682    0.290308   -0.993198
      4          1           0       -1.933814   -0.163549   -0.003189
      5          7           0       -0.352257    0.547461    1.207513
      6          1           0        0.669133    0.543685    1.273079
      7          1           0       -0.695100    1.509626    1.272670
 ---------------------------------------------------------------------
                    Distance matrix (angstroms):
                    1          2          3          4          5
     1  C    0.000000
     2  H    1.092674   0.000000
     3  H    1.103199   1.773832   0.000000
     4  H    1.092675   1.760386   1.773830   0.000000
     5  N    1.497261   2.114864   2.223099   2.114866   0.000000
     6  H    2.108451   2.441666   2.578172   2.984019   1.023499
     7  H    2.108449   2.984016   2.578168   2.441669   1.023498
                    6          7
     6  H    0.000000
     7  H    1.671578   0.000000
 Stoichiometry    CH5N
 Framework group  C1[X(CH5N)]
 Deg. of freedom    15
 Full point group                 C1      NOp   1
 Largest Abelian subgroup         C1      NOp   1
 Largest concise Abelian subgroup C1      NOp   1
                         Standard orientation:                         
 ---------------------------------------------------------------------
 Center     Atomic      Atomic             Coordinates (Angstroms)
 Number     Number       Type             X           Y           Z
 ---------------------------------------------------------------------
      1          6           0       -0.726644    0.000000    0.017302
      2          1           0       -1.117548    0.880196   -0.498824
      3          1           0       -1.137637   -0.000006    1.041086
      4          1           0       -1.117551   -0.880190   -0.498832
      5          7           0        0.765350   -0.000000   -0.108181
      6          1           0        1.187578    0.835788    0.305015
      7          1           0        1.187575   -0.835790    0.305012
 ---------------------------------------------------------------------
 Rotational constants (GHZ):         103.4683320          21.8715588          20.9166735
 Standard basis: 3-21G (6D, 7F)
 There are    28 symmetry adapted cartesian basis functions of A   symmetry.
 There are    28 symmetry adapted basis functions of A   symmetry.
    28 basis functions,    45 primitive gaussians,    28 cartesian basis functions
     9 alpha electrons        9 beta electrons
       nuclear repulsion energy        41.3655687800 Hartrees.
 NAtoms=    7 NActive=    7 NUniq=    7 SFac= 1.00D+00 NAtFMM=   60 NAOKFM=F Big=F
 Integral buffers will be    131072 words long.
 Raffenetti 2 integral format.
 Two-electron integral symmetry is turned on.
 One-electron integrals computed using PRISM.
 NBasis=    28 RedAO= T EigKep=  2.77D-02  NBF=    28
 NBsUse=    28 1.00D-06 EigRej= -1.00D+00 NBFU=    28
 Initial guess from the checkpoint file:  "/scratch/34938381/Gau-14747.chk"
 B after Tr=     0.000000    0.000000    0.000000
         Rot=    0.999956   -0.000001    0.009385    0.000001 Ang=  -1.08 deg.
 ExpMin= 1.83D-01 ExpMax= 2.43D+02 ExpMxC= 2.43D+02 IAcc=3 IRadAn=         5 AccDes= 0.00D+00
 Harris functional with IExCor=  402 and IRadAn=       5 diagonalized for initial guess.
 HarFok:  IExCor=  402 AccDes= 0.00D+00 IRadAn=         5 IDoV= 1 UseB2=F ITyADJ=14
 ICtDFT=  3500011 ScaDFX=  1.000000  1.000000  1.000000  1.000000
 FoFCou: FMM=F IPFlag=           0 FMFlag=      100000 FMFlg1=           0
         NFxFlg=           0 DoJE=T BraDBF=F KetDBF=T FulRan=T
         wScrn=  0.000000 ICntrl=       500 IOpCl=  0 I1Cent=   200000004 NGrid=           0
         NMat0=    1 NMatS0=      1 NMatT0=    0 NMatD0=    1 NMtDS0=    0 NMtDT0=    0
 Petite list used in FoFCou.
 Keep R1 ints in memory in canonical form, NReq=946920.
 Requested convergence on RMS density matrix=1.00D-08 within 128 cycles.
 Requested convergence on MAX density matrix=1.00D-06.
 Requested convergence on             energy=1.00D-06.
 No special actions if energy rises.
 Integral accuracy reduced to 1.0D-05 until final iterations.
 Initial convergence to 1.0D-05 achieved.  Increase integral accuracy.
 SCF Done:  E(RB3LYP) =  -95.3238180941     A.U. after   10 cycles
            NFock= 10  Conv=0.65D-08     -V/T= 2.0095
 Calling FoFJK, ICntrl=      2127 FMM=F ISym2X=0 I1Cent= 0 IOpClX= 0 NMat=1 NMatS=1 NMatT=0.
 ***** Axes restored to original set *****
 -------------------------------------------------------------------
 Center     Atomic                   Forces (Hartrees/Bohr)
 Number     Number              X              Y              Z
 -------------------------------------------------------------------
      1        6           0.002781041    0.003931587    0.007825068
      2        1           0.000661385   -0.001133330    0.000375034
      3        1           0.001111043    0.001568691   -0.000288112
      4        1          -0.001288416    0.000247499    0.000374795
      5        7          -0.002978204   -0.004209300   -0.006181015
      6        1          -0.000024546   -0.000287022   -0.001052970
      7        1          -0.000262303   -0.000118124   -0.001052799
 -------------------------------------------------------------------
 Cartesian Forces:  Max     0.007825068 RMS     0.002752501

 GradGradGradGradGradGradGradGradGradGradGradGradGradGradGradGradGradGrad
 Berny optimization.
 Using GEDIIS/GDIIS optimizer.
 FormGI is forming the generalized inverse of G from B-inverse, IUseBI=4.
 Internal  Forces:  Max     0.010031068 RMS     0.002378307
 Search for a local minimum.
 Step number   2 out of a maximum of   31
 All quantities printed in internal units (Hartrees-Bohrs-Radians)
 Mixed Optimization -- RFO/linear search
 Update second derivatives using D2CorX and points    1    2
 DE= -4.41D-03 DEPred=-5.34D-03 R= 8.27D-01
 TightC=F SS=  1.41D+00  RLast= 2.21D-01 DXNew= 5.0454D-01 6.6238D-01
 Trust test= 8.27D-01 RLast= 2.21D-01 DXMaxT set to 5.05D-01
 ITU=  1  0
 Use linear search instead of GDIIS.
     Eigenvalues ---    0.00766   0.03744   0.06641   0.07771   0.15893
     Eigenvalues ---    0.16000   0.16000   0.16000   0.17207   0.34031
     Eigenvalues ---    0.37226   0.37230   0.40424   0.47683   0.47689
 RFO step:  Lambda=-2.61604883D-04 EMin= 7.65815903D-03
 Quartic linear search produced a step of -0.09280.
 Iteration  1 RMS(Cart)=  0.01339151 RMS(Int)=  0.00008519
 Iteration  2 RMS(Cart)=  0.00008129 RMS(Int)=  0.00004891
 Iteration  3 RMS(Cart)=  0.00000000 RMS(Int)=  0.00004891
 Variable       Old X    -DE/DX   Delta X   Delta X   Delta X     New X
                                 (Linear)    (Quad)   (Total)
    R1        2.06485   0.00129  -0.00398   0.00827   0.00429   2.06915
    R2        2.08474   0.00118  -0.00582   0.01038   0.00455   2.08930
    R3        2.06486   0.00129  -0.00398   0.00827   0.00429   2.06915
    R4        2.82941  -0.01003  -0.00478  -0.01928  -0.02406   2.80536
    R5        1.93413  -0.00009  -0.00412   0.00516   0.00104   1.93517
    R6        1.93413  -0.00009  -0.00412   0.00517   0.00104   1.93517
    A1        1.88081   0.00100   0.00277   0.00100   0.00385   1.88466
    A2        1.87317   0.00048   0.00348   0.00063   0.00418   1.87736
    A3        1.89326  -0.00007   0.00161  -0.00192  -0.00022   1.89304
    A4        1.88081   0.00100   0.00277   0.00100   0.00385   1.88466
    A5        2.03645  -0.00215  -0.01168   0.00123  -0.01036   2.02610
    A6        1.89326  -0.00007   0.00161  -0.00192  -0.00022   1.89304
    A7        1.95762  -0.00144  -0.00436  -0.00701  -0.01133   1.94629
    A8        1.95762  -0.00144  -0.00436  -0.00701  -0.01133   1.94629
    A9        1.91099   0.00102  -0.00003  -0.00193  -0.00189   1.90910
    D1        1.04734   0.00018  -0.00001   0.00727   0.00727   1.05461
    D2       -3.07672  -0.00067  -0.00602  -0.00595  -0.01199  -3.08871
    D3       -1.07957   0.00042   0.00300   0.00661   0.00963  -1.06993
    D4        1.07956  -0.00042  -0.00300  -0.00661  -0.00963   1.06993
    D5        3.07672   0.00067   0.00602   0.00595   0.01199   3.08870
    D6       -1.04735  -0.00018   0.00001  -0.00727  -0.00727  -1.05462
         Item               Value     Threshold  Converged?
 Maximum Force            0.010031     0.000450     NO 
 RMS     Force            0.002378     0.000300     NO 
 Maximum Displacement     0.026722     0.001800     NO 
 RMS     Displacement     0.013451     0.001200     NO 
 Predicted change in Energy=-1.685434D-04
 GradGradGradGradGradGradGradGradGradGradGradGradGradGradGradGradGradGrad

                          Input orientation:                          
 ---------------------------------------------------------------------
 Center     Atomic      Atomic             Coordinates (Angstroms)
 Number     Number       Type             X           Y           Z
 ---------------------------------------------------------------------
      1          6           0       -0.840624   -0.142794   -0.019633
      2          1           0       -0.493314   -1.180969    0.002105
      3          1           0       -0.524905    0.302707   -0.980996
      4          1           0       -1.935227   -0.160031    0.001677
      5          7           0       -0.357225    0.540445    1.206476
      6          1           0        0.665479    0.538709    1.258939
      7          1           0       -0.698575    1.504524    1.258532
 ---------------------------------------------------------------------
                    Distance matrix (angstroms):
                    1          2          3          4          5
     1  C    0.000000
     2  H    1.094945   0.000000
     3  H    1.105609   1.780108   0.000000
     4  H    1.094946   1.766756   1.780107   0.000000
     5  N    1.484531   2.105302   2.206733   2.105302   0.000000
     6  H    2.089865   2.424814   2.547551   2.971971   1.024050
     7  H    2.089866   2.971971   2.547550   2.424817   1.024050
                    6          7
     6  H    0.000000
     7  H    1.671359   0.000000
 Stoichiometry    CH5N
 Framework group  C1[X(CH5N)]
 Deg. of freedom    15
 Full point group                 C1      NOp   1
 Largest Abelian subgroup         C1      NOp   1
 Largest concise Abelian subgroup C1      NOp   1
                         Standard orientation:                         
 ---------------------------------------------------------------------
 Center     Atomic      Atomic             Coordinates (Angstroms)
 Number     Number       Type             X           Y           Z
 ---------------------------------------------------------------------
      1          6           0       -0.719681    0.000000    0.017001
      2          1           0       -1.112383    0.883380   -0.497131
      3          1           0       -1.118144   -0.000003    1.048310
      4          1           0       -1.112384   -0.883377   -0.497135
      5          7           0        0.759287   -0.000000   -0.111400
      6          1           0        1.172995    0.835680    0.311876
      7          1           0        1.172996   -0.835680    0.311876
 ---------------------------------------------------------------------
 Rotational constants (GHZ):         102.6500063          22.2158245          21.2465202
 Standard basis: 3-21G (6D, 7F)
 There are    28 symmetry adapted cartesian basis functions of A   symmetry.
 There are    28 symmetry adapted basis functions of A   symmetry.
    28 basis functions,    45 primitive gaussians,    28 cartesian basis functions
     9 alpha electrons        9 beta electrons
       nuclear repulsion energy        41.5319215841 Hartrees.
 NAtoms=    7 NActive=    7 NUniq=    7 SFac= 1.00D+00 NAtFMM=   60 NAOKFM=F Big=F
 Integral buffers will be    131072 words long.
 Raffenetti 2 integral format.
 Two-electron integral symmetry is turned on.
 One-electron integrals computed using PRISM.
 NBasis=    28 RedAO= T EigKep=  2.72D-02  NBF=    28
 NBsUse=    28 1.00D-06 EigRej= -1.00D+00 NBFU=    28
 Initial guess from the checkpoint file:  "/scratch/34938381/Gau-14747.chk"
 B after Tr=    -0.000000   -0.000000   -0.000000
         Rot=    1.000000    0.000001   -0.000743   -0.000000 Ang=   0.09 deg.
 ExpMin= 1.83D-01 ExpMax= 2.43D+02 ExpMxC= 2.43D+02 IAcc=3 IRadAn=         5 AccDes= 0.00D+00
 Harris functional with IExCor=  402 and IRadAn=       5 diagonalized for initial guess.
 HarFok:  IExCor=  402 AccDes= 0.00D+00 IRadAn=         5 IDoV= 1 UseB2=F ITyADJ=14
 ICtDFT=  3500011 ScaDFX=  1.000000  1.000000  1.000000  1.000000
 FoFCou: FMM=F IPFlag=           0 FMFlag=      100000 FMFlg1=           0
         NFxFlg=           0 DoJE=T BraDBF=F KetDBF=T FulRan=T
         wScrn=  0.000000 ICntrl=       500 IOpCl=  0 I1Cent=   200000004 NGrid=           0
         NMat0=    1 NMatS0=      1 NMatT0=    0 NMatD0=    1 NMtDS0=    0 NMtDT0=    0
 Petite list used in FoFCou.
 Keep R1 ints in memory in canonical form, NReq=946920.
 Requested convergence on RMS density matrix=1.00D-08 within 128 cycles.
 Requested convergence on MAX density matrix=1.00D-06.
 Requested convergence on             energy=1.00D-06.
 No special actions if energy rises.
 Integral accuracy reduced to 1.0D-05 until final iterations.
 Initial convergence to 1.0D-05 achieved.  Increase integral accuracy.
 SCF Done:  E(RB3LYP) =  -95.3239974152     A.U. after    9 cycles
            NFock=  9  Conv=0.16D-08     -V/T= 2.0093
 Calling FoFJK, ICntrl=      2127 FMM=F ISym2X=0 I1Cent= 0 IOpClX= 0 NMat=1 NMatS=1 NMatT=0.
 ***** Axes restored to original set *****
 -------------------------------------------------------------------
 Center     Atomic                   Forces (Hartrees/Bohr)
 Number     Number              X              Y              Z
 -------------------------------------------------------------------
      1        6           0.000439566    0.000622043    0.002367271
      2        1          -0.000323304    0.000042010   -0.000506150
      3        1          -0.000113173   -0.000159941   -0.000121587
      4        1           0.000147336   -0.000291126   -0.000505981
      5        7          -0.000461459   -0.000652426   -0.001799386
      6        1          -0.000010315    0.000337183    0.000282875
      7        1           0.000321350    0.000102256    0.000282957
 -------------------------------------------------------------------
 Cartesian Forces:  Max     0.002367271 RMS     0.000731152

 GradGradGradGradGradGradGradGradGradGradGradGradGradGradGradGradGradGrad
 Berny optimization.
 Using GEDIIS/GDIIS optimizer.
 FormGI is forming the generalized inverse of G from B-inverse, IUseBI=4.
 Internal  Forces:  Max     0.001165765 RMS     0.000428903
 Search for a local minimum.
 Step number   3 out of a maximum of   31
 All quantities printed in internal units (Hartrees-Bohrs-Radians)
 Mixed Optimization -- En-DIIS/RFO-DIIS
 Update second derivatives using D2CorX and points    1    2    3
 DE= -1.79D-04 DEPred=-1.69D-04 R= 1.06D+00
 TightC=F SS=  1.41D+00  RLast= 4.04D-02 DXNew= 8.4853D-01 1.2120D-01
 Trust test= 1.06D+00 RLast= 4.04D-02 DXMaxT set to 5.05D-01
 ITU=  1  1  0
 Use linear search instead of GDIIS.
     Eigenvalues ---    0.00766   0.03874   0.06725   0.07722   0.15758
     Eigenvalues ---    0.16000   0.16000   0.16030   0.18220   0.33945
     Eigenvalues ---    0.36988   0.37230   0.37551   0.47344   0.47689
 RFO step:  Lambda=-2.04528208D-05 EMin= 7.65815903D-03
 Quartic linear search produced a step of  0.02309.
 Iteration  1 RMS(Cart)=  0.00208073 RMS(Int)=  0.00000749
 Iteration  2 RMS(Cart)=  0.00000608 RMS(Int)=  0.00000520
 Iteration  3 RMS(Cart)=  0.00000000 RMS(Int)=  0.00000520
 Variable       Old X    -DE/DX   Delta X   Delta X   Delta X     New X
                                 (Linear)    (Quad)   (Total)
    R1        2.06915  -0.00015   0.00010  -0.00018  -0.00008   2.06907
    R2        2.08930   0.00001   0.00011   0.00031   0.00042   2.08971
    R3        2.06915  -0.00015   0.00010  -0.00018  -0.00008   2.06907
    R4        2.80536  -0.00117  -0.00056  -0.00416  -0.00471   2.80064
    R5        1.93517   0.00000   0.00002   0.00013   0.00015   1.93533
    R6        1.93517   0.00000   0.00002   0.00013   0.00015   1.93533
    A1        1.88466  -0.00045   0.00009  -0.00298  -0.00289   1.88178
    A2        1.87736  -0.00055   0.00010  -0.00297  -0.00288   1.87447
    A3        1.89304   0.00069  -0.00001   0.00446   0.00445   1.89749
    A4        1.88466  -0.00045   0.00009  -0.00298  -0.00289   1.88178
    A5        2.02610   0.00001  -0.00024  -0.00034  -0.00058   2.02551
    A6        1.89304   0.00069  -0.00001   0.00446   0.00445   1.89749
    A7        1.94629   0.00051  -0.00026   0.00339   0.00313   1.94941
    A8        1.94629   0.00051  -0.00026   0.00339   0.00313   1.94941
    A9        1.90910  -0.00051  -0.00004  -0.00256  -0.00261   1.90649
    D1        1.05461  -0.00009   0.00017  -0.00144  -0.00128   1.05333
    D2       -3.08871  -0.00001  -0.00028   0.00014  -0.00014  -3.08885
    D3       -1.06993  -0.00004   0.00022  -0.00079  -0.00057  -1.07050
    D4        1.06993   0.00004  -0.00022   0.00079   0.00057   1.07050
    D5        3.08870   0.00001   0.00028  -0.00014   0.00014   3.08885
    D6       -1.05462   0.00009  -0.00017   0.00144   0.00128  -1.05333
         Item               Value     Threshold  Converged?
 Maximum Force            0.001166     0.000450     NO 
 RMS     Force            0.000429     0.000300     NO 
 Maximum Displacement     0.003608     0.001800     NO 
 RMS     Displacement     0.002079     0.001200     NO 
 Predicted change in Energy=-1.032090D-05
 GradGradGradGradGradGradGradGradGradGradGradGradGradGradGradGradGradGrad

                          Input orientation:                          
 ---------------------------------------------------------------------
 Center     Atomic      Atomic             Coordinates (Angstroms)
 Number     Number       Type             X           Y           Z
 ---------------------------------------------------------------------
      1          6           0       -0.840578   -0.142727   -0.017723
      2          1           0       -0.494843   -1.181455    0.000295
      3          1           0       -0.525255    0.302212   -0.979731
      4          1           0       -1.935176   -0.161635   -0.000132
      5          7           0       -0.356993    0.540771    1.205146
      6          1           0        0.665677    0.540213    1.259825
      7          1           0       -0.697223    1.505210    1.259419
 ---------------------------------------------------------------------
                    Distance matrix (angstroms):
                    1          2          3          4          5
     1  C    0.000000
     2  H    1.094903   0.000000
     3  H    1.105829   1.778382   0.000000
     4  H    1.094903   1.764820   1.778382   0.000000
     5  N    1.482037   2.106355   2.204293   2.106355   0.000000
     6  H    2.089819   2.428449   2.547660   2.973974   1.024131
     7  H    2.089819   2.973974   2.547660   2.428450   1.024131
                    6          7
     6  H    0.000000
     7  H    1.669945   0.000000
 Stoichiometry    CH5N
 Framework group  C1[X(CH5N)]
 Deg. of freedom    15
 Full point group                 C1      NOp   1
 Largest Abelian subgroup         C1      NOp   1
 Largest concise Abelian subgroup C1      NOp   1
                         Standard orientation:                         
 ---------------------------------------------------------------------
 Center     Atomic      Atomic             Coordinates (Angstroms)
 Number     Number       Type             X           Y           Z
 ---------------------------------------------------------------------
      1          6           0       -0.718293   -0.000000    0.016878
      2          1           0       -1.115512    0.882411   -0.495353
      3          1           0       -1.116126   -0.000002    1.048665
      4          1           0       -1.115513   -0.882409   -0.495355
      5          7           0        0.758176   -0.000000   -0.111463
      6          1           0        1.174837    0.834973    0.310508
      7          1           0        1.174838   -0.834973    0.310508
 ---------------------------------------------------------------------
 Rotational constants (GHZ):         102.8630986          22.2488631          21.2780385
 Standard basis: 3-21G (6D, 7F)
 There are    28 symmetry adapted cartesian basis functions of A   symmetry.
 There are    28 symmetry adapted basis functions of A   symmetry.
    28 basis functions,    45 primitive gaussians,    28 cartesian basis functions
     9 alpha electrons        9 beta electrons
       nuclear repulsion energy        41.5566265179 Hartrees.
 NAtoms=    7 NActive=    7 NUniq=    7 SFac= 1.00D+00 NAtFMM=   60 NAOKFM=F Big=F
 Integral buffers will be    131072 words long.
 Raffenetti 2 integral format.
 Two-electron integral symmetry is turned on.
 One-electron integrals computed using PRISM.
 NBasis=    28 RedAO= T EigKep=  2.72D-02  NBF=    28
 NBsUse=    28 1.00D-06 EigRej= -1.00D+00 NBFU=    28
 Initial guess from the checkpoint file:  "/scratch/34938381/Gau-14747.chk"
 B after Tr=    -0.000000   -0.000000   -0.000000
         Rot=    1.000000    0.000000   -0.000476   -0.000000 Ang=   0.05 deg.
 Keep R1 ints in memory in canonical form, NReq=946920.
 Requested convergence on RMS density matrix=1.00D-08 within 128 cycles.
 Requested convergence on MAX density matrix=1.00D-06.
 Requested convergence on             energy=1.00D-06.
 No special actions if energy rises.
 SCF Done:  E(RB3LYP) =  -95.3240102375     A.U. after    8 cycles
            NFock=  8  Conv=0.13D-08     -V/T= 2.0093
 Calling FoFJK, ICntrl=      2127 FMM=F ISym2X=0 I1Cent= 0 IOpClX= 0 NMat=1 NMatS=1 NMatT=0.
 ***** Axes restored to original set *****
 -------------------------------------------------------------------
 Center     Atomic                   Forces (Hartrees/Bohr)
 Number     Number              X              Y              Z
 -------------------------------------------------------------------
      1        6           0.000246551    0.000348531    0.000741612
      2        1          -0.000053312    0.000026460   -0.000078159
      3        1          -0.000084296   -0.000119124   -0.000173842
      4        1           0.000042699   -0.000041507   -0.000078141
      5        7          -0.000030090   -0.000042728   -0.000656185
      6        1          -0.000134594   -0.000033518    0.000122339
      7        1           0.000013043   -0.000138113    0.000122375
 -------------------------------------------------------------------
 Cartesian Forces:  Max     0.000741612 RMS     0.000249266

 GradGradGradGradGradGradGradGradGradGradGradGradGradGradGradGradGradGrad
 Berny optimization.
 Using GEDIIS/GDIIS optimizer.
 FormGI is forming the generalized inverse of G from B-inverse, IUseBI=4.
 Internal  Forces:  Max     0.000487792 RMS     0.000154509
 Search for a local minimum.
 Step number   4 out of a maximum of   31
 All quantities printed in internal units (Hartrees-Bohrs-Radians)
 Mixed Optimization -- En-DIIS/RFO-DIIS
 Swapping is turned off.
 Update second derivatives using D2CorX and points    1    2    3    4
 DE= -1.28D-05 DEPred=-1.03D-05 R= 1.24D+00
 TightC=F SS=  1.41D+00  RLast= 1.09D-02 DXNew= 8.4853D-01 3.2554D-02
 Trust test= 1.24D+00 RLast= 1.09D-02 DXMaxT set to 5.05D-01
 ITU=  1  1  1  0
     Eigenvalues ---    0.00766   0.03760   0.06712   0.07845   0.12606
     Eigenvalues ---    0.16000   0.16000   0.16084   0.18318   0.33294
     Eigenvalues ---    0.36115   0.37230   0.37523   0.47319   0.47689
 En-DIIS/RFO-DIIS/Sim-DIIS IScMMF=       -3 using points:     4    3
 RFO step:  Lambda=-4.51628074D-06.
 DidBck=F Rises=F RFO-DIIS coefs:    1.46077   -0.46077
 Iteration  1 RMS(Cart)=  0.00139359 RMS(Int)=  0.00000522
 Iteration  2 RMS(Cart)=  0.00000327 RMS(Int)=  0.00000420
 Iteration  3 RMS(Cart)=  0.00000000 RMS(Int)=  0.00000420
 Variable       Old X    -DE/DX   Delta X   Delta X   Delta X     New X
                                 (Linear)    (Quad)   (Total)
    R1        2.06907  -0.00004  -0.00004  -0.00003  -0.00007   2.06900
    R2        2.08971   0.00008   0.00019   0.00025   0.00044   2.09015
    R3        2.06907  -0.00004  -0.00004  -0.00003  -0.00007   2.06900
    R4        2.80064  -0.00049  -0.00217  -0.00093  -0.00310   2.79754
    R5        1.93533  -0.00013   0.00007  -0.00039  -0.00031   1.93501
    R6        1.93533  -0.00013   0.00007  -0.00039  -0.00031   1.93501
    A1        1.88178  -0.00016  -0.00133  -0.00015  -0.00148   1.88030
    A2        1.87447  -0.00009  -0.00133   0.00006  -0.00128   1.87320
    A3        1.89749   0.00005   0.00205  -0.00107   0.00098   1.89847
    A4        1.88178  -0.00016  -0.00133  -0.00015  -0.00148   1.88030
    A5        2.02551   0.00028  -0.00027   0.00226   0.00199   2.02750
    A6        1.89749   0.00005   0.00205  -0.00107   0.00098   1.89847
    A7        1.94941   0.00015   0.00144   0.00092   0.00236   1.95177
    A8        1.94941   0.00015   0.00144   0.00092   0.00236   1.95177
    A9        1.90649  -0.00006  -0.00120   0.00205   0.00084   1.90733
    D1        1.05333  -0.00005  -0.00059  -0.00145  -0.00205   1.05128
    D2       -3.08885   0.00010  -0.00007   0.00256   0.00249  -3.08636
    D3       -1.07050  -0.00007  -0.00026  -0.00200  -0.00227  -1.07277
    D4        1.07050   0.00007   0.00026   0.00201   0.00227   1.07277
    D5        3.08885  -0.00010   0.00007  -0.00256  -0.00249   3.08636
    D6       -1.05333   0.00005   0.00059   0.00145   0.00205  -1.05128
         Item               Value     Threshold  Converged?
 Maximum Force            0.000488     0.000450     NO 
 RMS     Force            0.000155     0.000300     YES
 Maximum Displacement     0.002836     0.001800     NO 
 RMS     Displacement     0.001393     0.001200     NO 
 Predicted change in Energy=-2.262361D-06
 GradGradGradGradGradGradGradGradGradGradGradGradGradGradGradGradGradGrad

                          Input orientation:                          
 ---------------------------------------------------------------------
 Center     Atomic      Atomic             Coordinates (Angstroms)
 Number     Number       Type             X           Y           Z
 ---------------------------------------------------------------------
      1          6           0       -0.840121   -0.142083   -0.017375
      2          1           0       -0.495070   -1.181008    0.000196
      3          1           0       -0.526168    0.300922   -0.980990
      4          1           0       -1.934679   -0.161700   -0.000231
      5          7           0       -0.356656    0.541247    1.203645
      6          1           0        0.665694    0.540043    1.261130
      7          1           0       -0.697390    1.505169    1.260725
 ---------------------------------------------------------------------
                    Distance matrix (angstroms):
                    1          2          3          4          5
     1  C    0.000000
     2  H    1.094868   0.000000
     3  H    1.106062   1.777585   0.000000
     4  H    1.094868   1.763934   1.777585   0.000000
     5  N    1.480395   2.105614   2.204341   2.105614   0.000000
     6  H    2.089820   2.428856   2.550454   2.974124   1.023965
     7  H    2.089820   2.974124   2.550453   2.428857   1.023965
                    6          7
     6  H    0.000000
     7  H    1.670170   0.000000
 Stoichiometry    CH5N
 Framework group  C1[X(CH5N)]
 Deg. of freedom    15
 Full point group                 C1      NOp   1
 Largest Abelian subgroup         C1      NOp   1
 Largest concise Abelian subgroup C1      NOp   1
                         Standard orientation:                         
 ---------------------------------------------------------------------
 Center     Atomic      Atomic             Coordinates (Angstroms)
 Number     Number       Type             X           Y           Z
 ---------------------------------------------------------------------
      1          6           0       -0.717470   -0.000000    0.016852
      2          1           0       -1.115502    0.881968   -0.495435
      3          1           0       -1.117818   -0.000001    1.047917
      4          1           0       -1.115503   -0.881967   -0.495436
      5          7           0        0.757411    0.000000   -0.110806
      6          1           0        1.175883    0.835085    0.308740
      7          1           0        1.175883   -0.835085    0.308740
 ---------------------------------------------------------------------
 Rotational constants (GHZ):         102.9978853          22.2755226          21.2987983
 Standard basis: 3-21G (6D, 7F)
 There are    28 symmetry adapted cartesian basis functions of A   symmetry.
 There are    28 symmetry adapted basis functions of A   symmetry.
    28 basis functions,    45 primitive gaussians,    28 cartesian basis functions
     9 alpha electrons        9 beta electrons
       nuclear repulsion energy        41.5750460535 Hartrees.
 NAtoms=    7 NActive=    7 NUniq=    7 SFac= 1.00D+00 NAtFMM=   60 NAOKFM=F Big=F
 Integral buffers will be    131072 words long.
 Raffenetti 2 integral format.
 Two-electron integral symmetry is turned on.
 One-electron integrals computed using PRISM.
 NBasis=    28 RedAO= T EigKep=  2.72D-02  NBF=    28
 NBsUse=    28 1.00D-06 EigRej= -1.00D+00 NBFU=    28
 Initial guess from the checkpoint file:  "/scratch/34938381/Gau-14747.chk"
 B after Tr=     0.000000    0.000000   -0.000000
         Rot=    1.000000    0.000000    0.000029   -0.000000 Ang=   0.00 deg.
 Keep R1 ints in memory in canonical form, NReq=946920.
 Requested convergence on RMS density matrix=1.00D-08 within 128 cycles.
 Requested convergence on MAX density matrix=1.00D-06.
 Requested convergence on             energy=1.00D-06.
 No special actions if energy rises.
 SCF Done:  E(RB3LYP) =  -95.3240129572     A.U. after    8 cycles
            NFock=  8  Conv=0.92D-09     -V/T= 2.0093
 Calling FoFJK, ICntrl=      2127 FMM=F ISym2X=0 I1Cent= 0 IOpClX= 0 NMat=1 NMatS=1 NMatT=0.
 ***** Axes restored to original set *****
 -------------------------------------------------------------------
 Center     Atomic                   Forces (Hartrees/Bohr)
 Number     Number              X              Y              Z
 -------------------------------------------------------------------
      1        6          -0.000004759   -0.000006758    0.000040079
      2        1           0.000025300   -0.000036060    0.000014344
      3        1           0.000009270    0.000013080   -0.000047921
      4        1          -0.000042447    0.000011897    0.000014315
      5        7           0.000173273    0.000244689   -0.000115272
      6        1          -0.000134420   -0.000075111    0.000047209
      7        1          -0.000026217   -0.000151738    0.000047246
 -------------------------------------------------------------------
 Cartesian Forces:  Max     0.000244689 RMS     0.000088261

 GradGradGradGradGradGradGradGradGradGradGradGradGradGradGradGradGradGrad
 Berny optimization.
 Using GEDIIS/GDIIS optimizer.
 FormGI is forming the generalized inverse of G from B-inverse, IUseBI=4.
 Internal  Forces:  Max     0.000131538 RMS     0.000053573
 Search for a local minimum.
 Step number   5 out of a maximum of   31
 All quantities printed in internal units (Hartrees-Bohrs-Radians)
 Mixed Optimization -- En-DIIS/RFO-DIIS
 Swapping is turned off.
 Update second derivatives using D2CorX and points    1    2    3    4    5
 DE= -2.72D-06 DEPred=-2.26D-06 R= 1.20D+00
 TightC=F SS=  1.41D+00  RLast= 8.05D-03 DXNew= 8.4853D-01 2.4162D-02
 Trust test= 1.20D+00 RLast= 8.05D-03 DXMaxT set to 5.05D-01
 ITU=  1  1  1  1  0
     Eigenvalues ---    0.00766   0.02692   0.06692   0.07799   0.14683
     Eigenvalues ---    0.16000   0.16000   0.16060   0.17944   0.33300
     Eigenvalues ---    0.37230   0.37309   0.37640   0.47689   0.48107
 En-DIIS/RFO-DIIS/Sim-DIIS IScMMF=       -3 using points:     5    4    3
 RFO step:  Lambda=-7.46226545D-07.
 DidBck=F Rises=F RFO-DIIS coefs:    1.66227   -0.76313    0.10086
 Iteration  1 RMS(Cart)=  0.00078393 RMS(Int)=  0.00000277
 Iteration  2 RMS(Cart)=  0.00000122 RMS(Int)=  0.00000251
 Iteration  3 RMS(Cart)=  0.00000000 RMS(Int)=  0.00000251
 Variable       Old X    -DE/DX   Delta X   Delta X   Delta X     New X
                                 (Linear)    (Quad)   (Total)
    R1        2.06900   0.00004  -0.00004   0.00016   0.00013   2.06913
    R2        2.09015   0.00005   0.00025  -0.00004   0.00021   2.09037
    R3        2.06900   0.00004  -0.00004   0.00016   0.00013   2.06913
    R4        2.79754  -0.00000  -0.00158   0.00088  -0.00070   2.79684
    R5        1.93501  -0.00013  -0.00022  -0.00020  -0.00043   1.93459
    R6        1.93501  -0.00013  -0.00022  -0.00020  -0.00043   1.93459
    A1        1.88030   0.00000  -0.00069   0.00047  -0.00022   1.88008
    A2        1.87320   0.00002  -0.00056   0.00045  -0.00010   1.87309
    A3        1.89847  -0.00003   0.00020  -0.00005   0.00015   1.89862
    A4        1.88030   0.00000  -0.00069   0.00047  -0.00022   1.88008
    A5        2.02750   0.00002   0.00138  -0.00116   0.00021   2.02772
    A6        1.89847  -0.00003   0.00020  -0.00005   0.00015   1.89862
    A7        1.95177   0.00004   0.00125   0.00009   0.00133   1.95310
    A8        1.95177   0.00004   0.00125   0.00009   0.00133   1.95310
    A9        1.90733   0.00003   0.00082   0.00061   0.00142   1.90874
    D1        1.05128  -0.00005  -0.00123  -0.00070  -0.00193   1.04935
    D2       -3.08636   0.00005   0.00167   0.00022   0.00189  -3.08447
    D3       -1.07277  -0.00005  -0.00145  -0.00046  -0.00191  -1.07468
    D4        1.07277   0.00005   0.00145   0.00046   0.00191   1.07468
    D5        3.08636  -0.00005  -0.00166  -0.00022  -0.00189   3.08446
    D6       -1.05128   0.00005   0.00123   0.00070   0.00193  -1.04935
         Item               Value     Threshold  Converged?
 Maximum Force            0.000132     0.000450     YES
 RMS     Force            0.000054     0.000300     YES
 Maximum Displacement     0.001790     0.001800     YES
 RMS     Displacement     0.000784     0.001200     YES
 Predicted change in Energy=-3.689653D-07
 Optimization completed.
    -- Stationary point found.
                           ----------------------------
                           !   Optimized Parameters   !
                           ! (Angstroms and Degrees)  !
 --------------------------                            --------------------------
 ! Name  Definition              Value          Derivative Info.                !
 --------------------------------------------------------------------------------
 ! R1    R(1,2)                  1.0949         -DE/DX =    0.0                 !
 ! R2    R(1,3)                  1.1061         -DE/DX =    0.0                 !
 ! R3    R(1,4)                  1.0949         -DE/DX =    0.0                 !
 ! R4    R(1,5)                  1.4804         -DE/DX =    0.0                 !
 ! R5    R(5,6)                  1.024          -DE/DX =   -0.0001              !
 ! R6    R(5,7)                  1.024          -DE/DX =   -0.0001              !
 ! A1    A(2,1,3)              107.7332         -DE/DX =    0.0                 !
 ! A2    A(2,1,4)              107.3262         -DE/DX =    0.0                 !
 ! A3    A(2,1,5)              108.7744         -DE/DX =    0.0                 !
 ! A4    A(3,1,4)              107.7332         -DE/DX =    0.0                 !
 ! A5    A(3,1,5)              116.1674         -DE/DX =    0.0                 !
 ! A6    A(4,1,5)              108.7744         -DE/DX =    0.0                 !
 ! A7    A(1,5,6)              111.8282         -DE/DX =    0.0                 !
 ! A8    A(1,5,7)              111.8282         -DE/DX =    0.0                 !
 ! A9    A(6,5,7)              109.2817         -DE/DX =    0.0                 !
 ! D1    D(2,1,5,6)             60.2341         -DE/DX =    0.0                 !
 ! D2    D(2,1,5,7)           -176.8352         -DE/DX =    0.0                 !
 ! D3    D(3,1,5,6)            -61.4654         -DE/DX =    0.0                 !
 ! D4    D(3,1,5,7)             61.4653         -DE/DX =    0.0                 !
 ! D5    D(4,1,5,6)            176.8352         -DE/DX =    0.0                 !
 ! D6    D(4,1,5,7)            -60.2342         -DE/DX =    0.0                 !
 --------------------------------------------------------------------------------
 GradGradGradGradGradGradGradGradGradGradGradGradGradGradGradGradGradGrad

                          Input orientation:                          
 ---------------------------------------------------------------------
 Center     Atomic      Atomic             Coordinates (Angstroms)
 Number     Number       Type             X           Y           Z
 ---------------------------------------------------------------------
      1          6           0       -0.840121   -0.142083   -0.017375
      2          1           0       -0.495070   -1.181008    0.000196
      3          1           0       -0.526168    0.300922   -0.980990
      4          1           0       -1.934679   -0.161700   -0.000231
      5          7           0       -0.356656    0.541247    1.203645
      6          1           0        0.665694    0.540043    1.261130
      7          1           0       -0.697390    1.505169    1.260725
 ---------------------------------------------------------------------
                    Distance matrix (angstroms):
                    1          2          3          4          5
     1  C    0.000000
     2  H    1.094868   0.000000
     3  H    1.106062   1.777585   0.000000
     4  H    1.094868   1.763934   1.777585   0.000000
     5  N    1.480395   2.105614   2.204341   2.105614   0.000000
     6  H    2.089820   2.428856   2.550454   2.974124   1.023965
     7  H    2.089820   2.974124   2.550453   2.428857   1.023965
                    6          7
     6  H    0.000000
     7  H    1.670170   0.000000
 Stoichiometry    CH5N
 Framework group  C1[X(CH5N)]
 Deg. of freedom    15
 Full point group                 C1      NOp   1
 Largest Abelian subgroup         C1      NOp   1
 Largest concise Abelian subgroup C1      NOp   1
                         Standard orientation:                         
 ---------------------------------------------------------------------
 Center     Atomic      Atomic             Coordinates (Angstroms)
 Number     Number       Type             X           Y           Z
 ---------------------------------------------------------------------
      1          6           0       -0.717470   -0.000000    0.016852
      2          1           0       -1.115502    0.881968   -0.495435
      3          1           0       -1.117818   -0.000001    1.047917
      4          1           0       -1.115503   -0.881967   -0.495436
      5          7           0        0.757411    0.000000   -0.110806
      6          1           0        1.175883    0.835085    0.308740
      7          1           0        1.175883   -0.835085    0.308740
 ---------------------------------------------------------------------
 Rotational constants (GHZ):         102.9978853          22.2755226          21.2987983

 **********************************************************************

            Population analysis using the SCF Density.

 **********************************************************************

 Orbital symmetries:
       Occupied  (A) (A) (A) (A) (A) (A) (A) (A) (A)
       Virtual   (A) (A) (A) (A) (A) (A) (A) (A) (A) (A) (A) (A)
                 (A) (A) (A) (A) (A) (A) (A)
 The electronic state is 1-A.
 Alpha  occ. eigenvalues --  -14.21297 -10.13277  -0.85913  -0.65345  -0.47984
 Alpha  occ. eigenvalues --   -0.42696  -0.39428  -0.36396  -0.20062
 Alpha virt. eigenvalues --    0.11323   0.16567   0.17411   0.19794   0.21625
 Alpha virt. eigenvalues --    0.26138   0.71681   0.72333   0.76013   0.97695
 Alpha virt. eigenvalues --    0.99333   1.02162   1.02764   1.07914   1.21788
 Alpha virt. eigenvalues --    1.32455   1.33480   1.70391   2.47948
          Condensed to atoms (all electrons):
               1          2          3          4          5          6
     1  C    5.134768   0.366490   0.333449   0.366490   0.306523  -0.047510
     2  H    0.366490   0.536818  -0.043580  -0.024525  -0.034332  -0.003183
     3  H    0.333449  -0.043580   0.650465  -0.043580  -0.044086  -0.002173
     4  H    0.366490  -0.024525  -0.043580   0.536818  -0.034332   0.004263
     5  N    0.306523  -0.034332  -0.044086  -0.034332   6.813195   0.324234
     6  H   -0.047510  -0.003183  -0.002173   0.004263   0.324234   0.502496
     7  H   -0.047510   0.004263  -0.002173  -0.003183   0.324234  -0.038305
               7
     1  C   -0.047510
     2  H    0.004263
     3  H   -0.002173
     4  H   -0.003183
     5  N    0.324234
     6  H   -0.038305
     7  H    0.502496
 Mulliken charges:
               1
     1  C   -0.412698
     2  H    0.198049
     3  H    0.151679
     4  H    0.198050
     5  N   -0.655435
     6  H    0.260178
     7  H    0.260178
 Sum of Mulliken charges =   0.00000
 Mulliken charges with hydrogens summed into heavy atoms:
               1
     1  C    0.135080
     5  N   -0.135080
 Electronic spatial extent (au):  <R**2>=             96.0584
 Charge=              0.0000 electrons
 Dipole moment (field-independent basis, Debye):
    X=             -0.1575    Y=              0.0000    Z=              1.4321  Tot=              1.4407
 Quadrupole moment (field-independent basis, Debye-Ang):
   XX=            -13.2002   YY=            -12.3553   ZZ=            -15.1440
   XY=             -0.0000   XZ=              2.1112   YZ=              0.0000
 Traceless Quadrupole moment (field-independent basis, Debye-Ang):
   XX=              0.3663   YY=              1.2112   ZZ=             -1.5775
   XY=             -0.0000   XZ=              2.1112   YZ=              0.0000
 Octapole moment (field-independent basis, Debye-Ang**2):
  XXX=              3.6629  YYY=              0.0000  ZZZ=              1.1326  XYY=              2.1265
  XXY=              0.0000  XXZ=              1.8761  XZZ=             -0.1499  YZZ=             -0.0000
  YYZ=              0.1520  XYZ=             -0.0000
 Hexadecapole moment (field-independent basis, Debye-Ang**3):
 XXXX=            -72.5833 YYYY=            -22.0083 ZZZZ=            -22.0611 XXXY=             -0.0000
 XXXZ=              3.4813 YYYX=             -0.0000 YYYZ=              0.0000 ZZZX=              1.3242
 ZZZY=              0.0000 XXYY=            -13.6809 XXZZ=            -16.4072 YYZZ=             -7.2857
 XXYZ=              0.0000 YYXZ=              1.7755 ZZXY=              0.0000
 N-N= 4.157504605352D+01 E-N=-3.045580513647D+02  KE= 9.444749621844D+01
 Unable to Open any file for archive entry.
 1\1\GINC-NODE318\FOpt\RB3LYP\3-21G\C1H5N1\JULIUS\18-Jul-2022\0\\# opt 
 freq b3lyp/3-21g\\title\\0,1\C,-0.8401214201,-0.1420828383,-0.01737486
 89\H,-0.4950697283,-1.1810080215,0.0001960955\H,-0.5261679603,0.300921
 6034,-0.9809895534\H,-1.9346789298,-0.1616995555,-0.0002314366\N,-0.35
 66555819,0.541246918,1.2036451595\H,0.6656938276,0.5400426703,1.261130
 0554\H,-0.6973901979,1.5051692169,1.2607245484\\Version=EM64L-G16RevC.
 01\State=1-A\HF=-95.324013\RMSD=9.190e-10\RMSF=8.826e-05\Dipole=0.2290
 236,0.323288,-0.4053583\Quadrupole=0.9162392,0.9326194,-1.8488586,0.02
 2516,0.5868981,0.8277433\PG=C01 [X(C1H5N1)]\\@
 The archive entry for this job was punched.


 GARLIC THEN HAVE POWER TO SAVE FROM DEATH
 BEAR WITH IT THOUGH IT MAKETH UNSAVORY BREATH,
 AND SCORN NOT GARLIC LIKE SOME THAT THINK
 IT ONLY MAKETH MEN WINK AND DRINK AND STINK.
   --  SIR JOHN HARRINGTON,
       "THE ENGLISHMAN'S DOCTOR", 1609
 Job cpu time:       0 days  0 hours  0 minutes 23.5 seconds.
 Elapsed time:       0 days  0 hours  0 minutes 24.6 seconds.
 File lengths (MBytes):  RWF=      6 Int=      0 D2E=      0 Chk=      1 Scr=      1
 Normal termination of Gaussian 16 at Mon Jul 18 13:38:20 2022.
 Link1:  Proceeding to internal job step number  2.
 -----------------------------------------------------------------
 #N Geom=AllCheck Guess=TCheck SCRF=Check GenChk RB3LYP/3-21G Freq
 -----------------------------------------------------------------
 1/10=4,29=7,30=1,38=1,40=1/1,3;
 2/12=2,40=1/2;
 3/5=5,11=2,14=-4,25=1,30=1,70=2,71=2,74=-5,116=1,140=1/1,2,3;
 4/5=101/1;
 5/5=2,38=6,98=1/2;
 8/6=4,10=90,11=11/1;
 11/6=1,8=1,9=11,15=111,16=1/1,2,10;
 10/6=1/2;
 6/7=2,8=2,9=2,10=2,28=1/1;
 7/8=1,10=1,25=1/1,2,3,16;
 1/10=4,30=1/3;
 99//99;
 Structure from the checkpoint file:  "/scratch/34938381/Gau-14747.chk"
 -----
 title
 -----
 Charge =  0 Multiplicity = 1
 Redundant internal coordinates found in file.  (old form).
 C,0,-0.8401214201,-0.1420828383,-0.0173748689
 H,0,-0.4950697283,-1.1810080215,0.0001960955
 H,0,-0.5261679603,0.3009216034,-0.9809895534
 H,0,-1.9346789298,-0.1616995555,-0.0002314366
 N,0,-0.3566555819,0.541246918,1.2036451595
 H,0,0.6656938276,0.5400426703,1.2611300554
 H,0,-0.6973901979,1.5051692169,1.2607245484
 Recover connectivity data from disk.

 GradGradGradGradGradGradGradGradGradGradGradGradGradGradGradGradGradGrad
 Berny optimization.
 Initialization pass.
                           ----------------------------
                           !    Initial Parameters    !
                           ! (Angstroms and Degrees)  !
 --------------------------                            --------------------------
 ! Name  Definition              Value          Derivative Info.                !
 --------------------------------------------------------------------------------
 ! R1    R(1,2)                  1.0949         calculate D2E/DX2 analytically  !
 ! R2    R(1,3)                  1.1061         calculate D2E/DX2 analytically  !
 ! R3    R(1,4)                  1.0949         calculate D2E/DX2 analytically  !
 ! R4    R(1,5)                  1.4804         calculate D2E/DX2 analytically  !
 ! R5    R(5,6)                  1.024          calculate D2E/DX2 analytically  !
 ! R6    R(5,7)                  1.024          calculate D2E/DX2 analytically  !
 ! A1    A(2,1,3)              107.7332         calculate D2E/DX2 analytically  !
 ! A2    A(2,1,4)              107.3262         calculate D2E/DX2 analytically  !
 ! A3    A(2,1,5)              108.7744         calculate D2E/DX2 analytically  !
 ! A4    A(3,1,4)              107.7332         calculate D2E/DX2 analytically  !
 ! A5    A(3,1,5)              116.1674         calculate D2E/DX2 analytically  !
 ! A6    A(4,1,5)              108.7744         calculate D2E/DX2 analytically  !
 ! A7    A(1,5,6)              111.8282         calculate D2E/DX2 analytically  !
 ! A8    A(1,5,7)              111.8282         calculate D2E/DX2 analytically  !
 ! A9    A(6,5,7)              109.2817         calculate D2E/DX2 analytically  !
 ! D1    D(2,1,5,6)             60.2341         calculate D2E/DX2 analytically  !
 ! D2    D(2,1,5,7)           -176.8352         calculate D2E/DX2 analytically  !
 ! D3    D(3,1,5,6)            -61.4654         calculate D2E/DX2 analytically  !
 ! D4    D(3,1,5,7)             61.4653         calculate D2E/DX2 analytically  !
 ! D5    D(4,1,5,6)            176.8352         calculate D2E/DX2 analytically  !
 ! D6    D(4,1,5,7)            -60.2342         calculate D2E/DX2 analytically  !
 --------------------------------------------------------------------------------
 Trust Radius=3.00D-01 FncErr=1.00D-07 GrdErr=1.00D-07 EigMax=2.50D+02 EigMin=1.00D-04
 Number of steps in this run=      2 maximum allowed number of steps=      2.
 GradGradGradGradGradGradGradGradGradGradGradGradGradGradGradGradGradGrad

                          Input orientation:                          
 ---------------------------------------------------------------------
 Center     Atomic      Atomic             Coordinates (Angstroms)
 Number     Number       Type             X           Y           Z
 ---------------------------------------------------------------------
      1          6           0       -0.840121   -0.142083   -0.017375
      2          1           0       -0.495070   -1.181008    0.000196
      3          1           0       -0.526168    0.300922   -0.980990
      4          1           0       -1.934679   -0.161700   -0.000231
      5          7           0       -0.356656    0.541247    1.203645
      6          1           0        0.665694    0.540043    1.261130
      7          1           0       -0.697390    1.505169    1.260725
 ---------------------------------------------------------------------
                    Distance matrix (angstroms):
                    1          2          3          4          5
     1  C    0.000000
     2  H    1.094868   0.000000
     3  H    1.106062   1.777585   0.000000
     4  H    1.094868   1.763934   1.777585   0.000000
     5  N    1.480395   2.105614   2.204341   2.105614   0.000000
     6  H    2.089820   2.428856   2.550454   2.974124   1.023965
     7  H    2.089820   2.974124   2.550453   2.428857   1.023965
                    6          7
     6  H    0.000000
     7  H    1.670170   0.000000
 Stoichiometry    CH5N
 Framework group  C1[X(CH5N)]
 Deg. of freedom    15
 Full point group                 C1      NOp   1
 Largest Abelian subgroup         C1      NOp   1
 Largest concise Abelian subgroup C1      NOp   1
                         Standard orientation:                         
 ---------------------------------------------------------------------
 Center     Atomic      Atomic             Coordinates (Angstroms)
 Number     Number       Type             X           Y           Z
 ---------------------------------------------------------------------
      1          6           0       -0.717470   -0.000000    0.016852
      2          1           0       -1.115502    0.881968   -0.495435
      3          1           0       -1.117818   -0.000001    1.047917
      4          1           0       -1.115503   -0.881967   -0.495436
      5          7           0        0.757411    0.000000   -0.110806
      6          1           0        1.175883    0.835085    0.308740
      7          1           0        1.175883   -0.835085    0.308740
 ---------------------------------------------------------------------
 Rotational constants (GHZ):         102.9978853          22.2755226          21.2987983
 Standard basis: 3-21G (6D, 7F)
 There are    28 symmetry adapted cartesian basis functions of A   symmetry.
 There are    28 symmetry adapted basis functions of A   symmetry.
    28 basis functions,    45 primitive gaussians,    28 cartesian basis functions
     9 alpha electrons        9 beta electrons
       nuclear repulsion energy        41.5750460535 Hartrees.
 NAtoms=    7 NActive=    7 NUniq=    7 SFac= 1.00D+00 NAtFMM=   60 NAOKFM=F Big=F
 Integral buffers will be    131072 words long.
 Raffenetti 2 integral format.
 Two-electron integral symmetry is turned on.
 One-electron integrals computed using PRISM.
 NBasis=    28 RedAO= T EigKep=  2.72D-02  NBF=    28
 NBsUse=    28 1.00D-06 EigRej= -1.00D+00 NBFU=    28
 Initial guess from the checkpoint file:  "/scratch/34938381/Gau-14747.chk"
 B after Tr=    -0.000000   -0.000000    0.000000
         Rot=    1.000000   -0.000000   -0.000000    0.000000 Ang=   0.00 deg.
 Keep R1 ints in memory in canonical form, NReq=946920.
 Requested convergence on RMS density matrix=1.00D-08 within 128 cycles.
 Requested convergence on MAX density matrix=1.00D-06.
 Requested convergence on             energy=1.00D-06.
 No special actions if energy rises.
 SCF Done:  E(RB3LYP) =  -95.3240129572     A.U. after    1 cycles
            NFock=  1  Conv=0.23D-09     -V/T= 2.0093
 DoSCS=F DFT=T ScalE2(SS,OS)=  1.000000  1.000000
 Range of M.O.s used for correlation:     1    28
 NBasis=    28 NAE=     9 NBE=     9 NFC=     0 NFV=     0
 NROrb=     28 NOA=     9 NOB=     9 NVA=    19 NVB=    19
 Symmetrizing basis deriv contribution to polar:
 IMax=3 JMax=2 DiffMx= 0.00D+00
 G2DrvN: will do     8 centers at a time, making    1 passes.
 Calling FoFCou, ICntrl=  3107 FMM=F I1Cent=   0 AccDes= 0.00D+00.
 End of G2Drv F.D. properties file   721 does not exist.
 End of G2Drv F.D. properties file   722 does not exist.
 End of G2Drv F.D. properties file   788 does not exist.
          IDoAtm=1111111
          Differentiating once with respect to electric field.
                with respect to dipole field.
          Differentiating once with respect to nuclear coordinates.
 Keep R1 ints in memory in canonical form, NReq=949867.
          There are    24 degrees of freedom in the 1st order CPHF.  IDoFFX=6 NUNeed=     3.
     21 vectors produced by pass  0 Test12= 7.13D-16 4.17D-09 XBig12= 1.04D+01 1.77D+00.
 AX will form    21 AO Fock derivatives at one time.
     21 vectors produced by pass  1 Test12= 7.13D-16 4.17D-09 XBig12= 1.40D-01 1.40D-01.
     21 vectors produced by pass  2 Test12= 7.13D-16 4.17D-09 XBig12= 4.18D-04 7.94D-03.
     21 vectors produced by pass  3 Test12= 7.13D-16 4.17D-09 XBig12= 1.58D-07 1.17D-04.
     18 vectors produced by pass  4 Test12= 7.13D-16 4.17D-09 XBig12= 4.08D-11 2.20D-06.
      4 vectors produced by pass  5 Test12= 7.13D-16 4.17D-09 XBig12= 9.28D-15 3.24D-08.
 InvSVY:  IOpt=1 It=  1 EMax= 4.44D-16
 Solved reduced A of dimension   106 with    24 vectors.
 Isotropic polarizability for W=    0.000000       17.34 Bohr**3.
 End of Minotr F.D. properties file   721 does not exist.
 End of Minotr F.D. properties file   722 does not exist.
 End of Minotr F.D. properties file   788 does not exist.

 **********************************************************************

            Population analysis using the SCF Density.

 **********************************************************************

 Orbital symmetries:
       Occupied  (A) (A) (A) (A) (A) (A) (A) (A) (A)
       Virtual   (A) (A) (A) (A) (A) (A) (A) (A) (A) (A) (A) (A)
                 (A) (A) (A) (A) (A) (A) (A)
 The electronic state is 1-A.
 Alpha  occ. eigenvalues --  -14.21297 -10.13277  -0.85913  -0.65345  -0.47984
 Alpha  occ. eigenvalues --   -0.42696  -0.39428  -0.36396  -0.20062
 Alpha virt. eigenvalues --    0.11323   0.16567   0.17411   0.19794   0.21625
 Alpha virt. eigenvalues --    0.26138   0.71681   0.72333   0.76013   0.97695
 Alpha virt. eigenvalues --    0.99333   1.02162   1.02764   1.07914   1.21788
 Alpha virt. eigenvalues --    1.32455   1.33480   1.70391   2.47948
          Condensed to atoms (all electrons):
               1          2          3          4          5          6
     1  C    5.134768   0.366490   0.333449   0.366490   0.306523  -0.047510
     2  H    0.366490   0.536818  -0.043580  -0.024525  -0.034332  -0.003183
     3  H    0.333449  -0.043580   0.650465  -0.043580  -0.044086  -0.002173
     4  H    0.366490  -0.024525  -0.043580   0.536818  -0.034332   0.004263
     5  N    0.306523  -0.034332  -0.044086  -0.034332   6.813195   0.324234
     6  H   -0.047510  -0.003183  -0.002173   0.004263   0.324234   0.502496
     7  H   -0.047510   0.004263  -0.002173  -0.003183   0.324234  -0.038305
               7
     1  C   -0.047510
     2  H    0.004263
     3  H   -0.002173
     4  H   -0.003183
     5  N    0.324234
     6  H   -0.038305
     7  H    0.502496
 Mulliken charges:
               1
     1  C   -0.412698
     2  H    0.198049
     3  H    0.151679
     4  H    0.198050
     5  N   -0.655435
     6  H    0.260178
     7  H    0.260178
 Sum of Mulliken charges =   0.00000
 Mulliken charges with hydrogens summed into heavy atoms:
               1
     1  C    0.135080
     5  N   -0.135080
 APT charges:
               1
     1  C    0.329989
     2  H   -0.019128
     3  H   -0.123334
     4  H   -0.019128
     5  N   -0.412971
     6  H    0.122286
     7  H    0.122286
 Sum of APT charges =   0.00000
 APT charges with hydrogens summed into heavy atoms:
               1
     1  C    0.168399
     5  N   -0.168399
 Electronic spatial extent (au):  <R**2>=             96.0584
 Charge=              0.0000 electrons
 Dipole moment (field-independent basis, Debye):
    X=             -0.1575    Y=              0.0000    Z=              1.4321  Tot=              1.4407
 Quadrupole moment (field-independent basis, Debye-Ang):
   XX=            -13.2002   YY=            -12.3553   ZZ=            -15.1440
   XY=             -0.0000   XZ=              2.1112   YZ=              0.0000
 Traceless Quadrupole moment (field-independent basis, Debye-Ang):
   XX=              0.3663   YY=              1.2112   ZZ=             -1.5775
   XY=             -0.0000   XZ=              2.1112   YZ=              0.0000
 Octapole moment (field-independent basis, Debye-Ang**2):
  XXX=              3.6629  YYY=              0.0000  ZZZ=              1.1326  XYY=              2.1265
  XXY=              0.0000  XXZ=              1.8761  XZZ=             -0.1499  YZZ=             -0.0000
  YYZ=              0.1520  XYZ=             -0.0000
 Hexadecapole moment (field-independent basis, Debye-Ang**3):
 XXXX=            -72.5833 YYYY=            -22.0083 ZZZZ=            -22.0611 XXXY=             -0.0000
 XXXZ=              3.4813 YYYX=             -0.0000 YYYZ=              0.0000 ZZZX=              1.3242
 ZZZY=              0.0000 XXYY=            -13.6809 XXZZ=            -16.4072 YYZZ=             -7.2857
 XXYZ=              0.0000 YYXZ=              1.7755 ZZXY=              0.0000
 N-N= 4.157504605352D+01 E-N=-3.045580513534D+02  KE= 9.444749621450D+01
  Exact polarizability:      19.782       0.000      18.146       0.486      -0.000      14.105
 Approx polarizability:      23.138       0.000      22.597      -0.007      -0.000      17.239
 Calling FoFJK, ICntrl=    100127 FMM=F ISym2X=0 I1Cent= 0 IOpClX= 0 NMat=1 NMatS=1 NMatT=0.
 Full mass-weighted force constant matrix:
 Low frequencies ---   -2.7583   -0.0013   -0.0011   -0.0006    3.1586   15.7153
 Low frequencies ---  327.7139  705.1014  992.8538
 Diagonal vibrational polarizability:
        5.9380420      13.7323768       7.3509016
 Harmonic frequencies (cm**-1), IR intensities (KM/Mole), Raman scattering
 activities (A**4/AMU), depolarization ratios for plane and unpolarized
 incident light, reduced masses (AMU), force constants (mDyne/A),
 and normal coordinates:
                      1                      2                      3
                      A                      A                      A
 Frequencies --    327.6960               705.1011               992.8537
 Red. masses --      1.0263                 1.3619                 1.0507
 Frc consts  --      0.0649                 0.3989                 0.6102
 IR Inten    --     54.2637               227.5561                 0.1931
  Atom  AN      X      Y      Z        X      Y      Z        X      Y      Z
     1   6    -0.00   0.01   0.00    -0.07   0.00   0.01     0.00  -0.06  -0.00
     2   1    -0.09  -0.21  -0.30    -0.09   0.01   0.07     0.46   0.15  -0.01
     3   1    -0.00   0.30   0.00     0.13  -0.00   0.07    -0.00   0.29   0.00
     4   1     0.09  -0.21   0.30    -0.09  -0.01   0.07    -0.46   0.15   0.01
     5   7     0.00   0.04  -0.00     0.10  -0.00  -0.11    -0.00  -0.01  -0.00
     6   1     0.04  -0.24   0.51    -0.30  -0.09   0.60    -0.42   0.13   0.16
     7   1    -0.04  -0.24  -0.51    -0.30   0.09   0.60     0.42   0.13  -0.16
                      4                      5                      6
                      A                      A                      A
 Frequencies --   1042.0857              1166.3203              1366.6132
[...]
  Atom  AN      X      Y      Z        X      Y      Z        X      Y      Z
     1   6    -0.11  -0.00  -0.02     0.03   0.00  -0.06    -0.00  -0.05  -0.00
     2   1     0.56   0.29   0.03     0.04   0.32   0.51    -0.32   0.06   0.38
     3   1     0.41  -0.00   0.16    -0.48   0.00  -0.19     0.00   0.69   0.00
     4   1     0.56  -0.29   0.03     0.04  -0.32   0.51     0.32   0.06  -0.38
     5   7    -0.02   0.00   0.00     0.00   0.00  -0.01    -0.00  -0.02   0.00
     6   1     0.02  -0.00  -0.02    -0.00  -0.01   0.01    -0.06   0.01   0.01
     7   1     0.02   0.00  -0.02    -0.00   0.01   0.01     0.06   0.01  -0.01
                     10                     11                     12
                      A                      A                      A
 Frequencies --   1727.8092              2936.6480              3070.5006
 Red. masses --      1.0819                 1.0635                 1.0655
 Frc consts  --      1.9030                 5.4039                 5.9184
 IR Inten    --     14.4916               115.8642                37.4498
  Atom  AN      X      Y      Z        X      Y      Z        X      Y      Z
     1   6    -0.00   0.00  -0.02     0.03   0.00  -0.06     0.04  -0.00   0.06
     2   1    -0.05  -0.01   0.01    -0.03   0.08  -0.08    -0.24   0.58  -0.32
     3   1     0.05   0.00  -0.01    -0.32  -0.00   0.93     0.05  -0.00  -0.11
     4   1    -0.05   0.01   0.01    -0.03  -0.08  -0.08    -0.24  -0.58  -0.32
     5   7    -0.07  -0.00  -0.02     0.00  -0.00  -0.00    -0.00   0.00  -0.00
     6   1     0.53  -0.39   0.25    -0.00  -0.01   0.00     0.01   0.02   0.01
     7   1     0.53   0.39   0.25    -0.00   0.01   0.00     0.01  -0.02   0.01
                     13                     14                     15
                      A                      A                      A
 Frequencies --   3109.6209              3399.4594              3493.3109
 Red. masses --      1.1012                 1.0442                 1.0947
 Frc consts  --      6.2740                 7.1099                 7.8709
 IR Inten    --     32.8424                 3.3878                 1.8104
  Atom  AN      X      Y      Z        X      Y      Z        X      Y      Z
     1   6    -0.00  -0.09  -0.00    -0.00  -0.00   0.01     0.00  -0.00  -0.00
     2   1    -0.25   0.56  -0.34    -0.00   0.02  -0.01    -0.01   0.02  -0.01
     3   1    -0.00  -0.03   0.00    -0.00   0.00  -0.01     0.00  -0.00   0.00
     4   1     0.25   0.56   0.34    -0.00  -0.02  -0.01     0.01   0.02   0.01
     5   7     0.00   0.00   0.00     0.04  -0.00   0.03    -0.00  -0.08  -0.00
     6   1    -0.01  -0.02  -0.01    -0.28  -0.60  -0.24     0.30   0.57   0.29
     7   1     0.01  -0.02   0.01    -0.28   0.60  -0.24    -0.30   0.57  -0.29

 -------------------
 - Thermochemistry -
 -------------------
 Temperature   298.150 Kelvin.  Pressure   1.00000 Atm.
 Atom     1 has atomic number  6 and mass  12.00000
 Atom     2 has atomic number  1 and mass   1.00783
 Atom     3 has atomic number  1 and mass   1.00783
 Atom     4 has atomic number  1 and mass   1.00783
 Atom     5 has atomic number  7 and mass  14.00307
 Atom     6 has atomic number  1 and mass   1.00783
 Atom     7 has atomic number  1 and mass   1.00783
 Molecular mass:    31.04220 amu.
 Principal axes and moments of inertia in atomic units:
                           1         2         3
     Eigenvalues --    17.52212  81.01903  84.73441
           X            0.99943  -0.00000   0.03369
           Y            0.00000   1.00000   0.00000
           Z           -0.03369  -0.00000   0.99943
 This molecule is an asymmetric top.
 Rotational symmetry number  1.
 Rotational temperatures (Kelvin)      4.94312     1.06906     1.02218
 Rotational constants (GHZ):         102.99789    22.27552    21.29880
 Zero-point vibrational energy     167466.3 (Joules/Mol)
                                   40.02540 (Kcal/Mol)
 Warning -- explicit consideration of   1 degrees of freedom as
           vibrations may cause significant error
 Vibrational temperatures:    471.48  1014.48  1428.50  1499.33  1678.07
          (Kelvin)           1966.25  2161.71  2253.89  2289.32  2485.93
                             4225.18  4417.77  4474.05  4891.06  5026.10
 
 Zero-point correction=                           0.063785 (Hartree/Particle)
 Thermal correction to Energy=                    0.067225
 Thermal correction to Enthalpy=                  0.068169
 Thermal correction to Gibbs Free Energy=         0.040847
 Sum of electronic and zero-point Energies=            -95.260228
 Sum of electronic and thermal Energies=               -95.256788
 Sum of electronic and thermal Enthalpies=             -95.255844
 Sum of electronic and thermal Free Energies=          -95.283166
 
                     E (Thermal)             CV                S
                      KCal/Mol        Cal/Mol-Kelvin    Cal/Mol-Kelvin
 Total                   42.184              9.688             57.505
 Electronic               0.000              0.000              0.000
 Translational            0.889              2.981             36.231
 Rotational               0.889              2.981             19.426
 Vibrational             40.407              3.726              1.848
 Vibration     1          0.711              1.620              1.271
                       Q            Log10(Q)             Ln(Q)
 Total Bot       0.162821D-18        -18.788291        -43.261638
 Total V=0       0.355249D+11         10.550532         24.293499
 Vib (Bot)       0.610049D-29        -29.214636        -67.269184
 Vib (Bot)    1  0.570987D+00         -0.243374         -0.560389
 Vib (V=0)       0.133103D+01          0.124188          0.285952
 Vib (V=0)    1  0.125896D+01          0.100013          0.230289
 Electronic      0.100000D+01          0.000000          0.000000
 Translational   0.679802D+07          6.832383         15.732142
 Rotational      0.392611D+04          3.593962          8.275404
 ***** Axes restored to original set *****
 -------------------------------------------------------------------
 Center     Atomic                   Forces (Hartrees/Bohr)
 Number     Number              X              Y              Z
 -------------------------------------------------------------------
      1        6          -0.000004759   -0.000006759    0.000040080
      2        1           0.000025300   -0.000036060    0.000014343
      3        1           0.000009270    0.000013081   -0.000047922
      4        1          -0.000042447    0.000011898    0.000014316
      5        7           0.000173264    0.000244695   -0.000115272
      6        1          -0.000134414   -0.000075111    0.000047209
      7        1          -0.000026215   -0.000151743    0.000047246
 -------------------------------------------------------------------
 Cartesian Forces:  Max     0.000244695 RMS     0.000088261
 FormGI is forming the generalized inverse of G from B-inverse, IUseBI=4.

 GradGradGradGradGradGradGradGradGradGradGradGradGradGradGradGradGradGrad
 Berny optimization.
 Internal  Forces:  Max     0.000131543 RMS     0.000053573
 Search for a local minimum.
 Step number   1 out of a maximum of    2
 All quantities printed in internal units (Hartrees-Bohrs-Radians)
 Second derivative matrix not updated -- analytic derivatives used.
 ITU=  0
     Eigenvalues ---    0.00272   0.02073   0.06674   0.06945   0.12763
     Eigenvalues ---    0.15154   0.15299   0.18339   0.20530   0.30624
     Eigenvalues ---    0.33683   0.33961   0.36176   0.42469   0.42787
 Angle between quadratic step and forces=  49.80 degrees.
 Linear search not attempted -- first point.
 Iteration  1 RMS(Cart)=  0.00099522 RMS(Int)=  0.00000274
 Iteration  2 RMS(Cart)=  0.00000196 RMS(Int)=  0.00000200
 Iteration  3 RMS(Cart)=  0.00000000 RMS(Int)=  0.00000200
 Variable       Old X    -DE/DX   Delta X   Delta X   Delta X     New X
                                 (Linear)    (Quad)   (Total)
    R1        2.06900   0.00004   0.00000   0.00015   0.00015   2.06915
    R2        2.09015   0.00005   0.00000   0.00024   0.00024   2.09040
    R3        2.06900   0.00004   0.00000   0.00015   0.00015   2.06915
    R4        2.79754  -0.00000   0.00000  -0.00071  -0.00071   2.79683
    R5        1.93501  -0.00013   0.00000  -0.00067  -0.00067   1.93434
    R6        1.93501  -0.00013   0.00000  -0.00067  -0.00067   1.93434
    A1        1.88030   0.00000   0.00000  -0.00012  -0.00012   1.88018
    A2        1.87320   0.00002   0.00000   0.00001   0.00001   1.87321
    A3        1.89847  -0.00003   0.00000   0.00001   0.00001   1.89848
    A4        1.88030   0.00000   0.00000  -0.00012  -0.00012   1.88018
    A5        2.02750   0.00002   0.00000   0.00019   0.00019   2.02770
    A6        1.89847  -0.00003   0.00000   0.00001   0.00001   1.89848
    A7        1.95177   0.00004   0.00000   0.00155   0.00154   1.95331
    A8        1.95177   0.00004   0.00000   0.00155   0.00154   1.95331
    A9        1.90733   0.00003   0.00000   0.00209   0.00209   1.90941
    D1        1.05128  -0.00005   0.00000  -0.00252  -0.00252   1.04877
    D2       -3.08636   0.00005   0.00000   0.00250   0.00250  -3.08386
    D3       -1.07277  -0.00005   0.00000  -0.00251  -0.00251  -1.07528
    D4        1.07277   0.00005   0.00000   0.00251   0.00251   1.07528
    D5        3.08636  -0.00005   0.00000  -0.00249  -0.00250   3.08386
    D6       -1.05128   0.00005   0.00000   0.00252   0.00252  -1.04877
         Item               Value     Threshold  Converged?
 Maximum Force            0.000132     0.000450     YES
 RMS     Force            0.000054     0.000300     YES
 Maximum Displacement     0.002240     0.001800     NO 
 RMS     Displacement     0.000995     0.001200     YES
 Predicted change in Energy=-5.514164D-07
                           ----------------------------
                           ! Non-Optimized Parameters !
                           ! (Angstroms and Degrees)  !
 --------------------------                            --------------------------
 ! Name  Definition              Value          Derivative Info.                !
 --------------------------------------------------------------------------------
 ! R1    R(1,2)                  1.0949         -DE/DX =    0.0                 !
 ! R2    R(1,3)                  1.1062         -DE/DX =    0.0                 !
 ! R3    R(1,4)                  1.0949         -DE/DX =    0.0                 !
 ! R4    R(1,5)                  1.48           -DE/DX =    0.0                 !
 ! R5    R(5,6)                  1.0236         -DE/DX =   -0.0001              !
 ! R6    R(5,7)                  1.0236         -DE/DX =   -0.0001              !
 ! A1    A(2,1,3)              107.7266         -DE/DX =    0.0                 !
 ! A2    A(2,1,4)              107.3269         -DE/DX =    0.0                 !
 ! A3    A(2,1,5)              108.7748         -DE/DX =    0.0                 !
 ! A4    A(3,1,4)              107.7266         -DE/DX =    0.0                 !
 ! A5    A(3,1,5)              116.1785         -DE/DX =    0.0                 !
 ! A6    A(4,1,5)              108.7748         -DE/DX =    0.0                 !
 ! A7    A(1,5,6)              111.9166         -DE/DX =    0.0                 !
 ! A8    A(1,5,7)              111.9166         -DE/DX =    0.0                 !
 ! A9    A(6,5,7)              109.4013         -DE/DX =    0.0                 !
 ! D1    D(2,1,5,6)             60.0898         -DE/DX =    0.0                 !
 ! D2    D(2,1,5,7)           -176.6921         -DE/DX =    0.0                 !
 ! D3    D(3,1,5,6)            -61.609          -DE/DX =    0.0                 !
 ! D4    D(3,1,5,7)             61.609          -DE/DX =    0.0                 !
 ! D5    D(4,1,5,6)            176.6921         -DE/DX =    0.0                 !
 ! D6    D(4,1,5,7)            -60.0898         -DE/DX =    0.0                 !
 --------------------------------------------------------------------------------
 GradGradGradGradGradGradGradGradGradGradGradGradGradGradGradGradGradGrad


 ----------------------------------------------------------------------

 Electric dipole moment (input orientation):
 (Debye = 10**-18 statcoulomb cm , SI units = C m)
                  (au)            (Debye)         (10**-30 SI)
   Tot        0.566818D+00      0.144071D+01      0.480568D+01
   x          0.229024D+00      0.582120D+00      0.194174D+01
   y          0.323288D+00      0.821716D+00      0.274095D+01
   z         -0.405358D+00     -0.103032D+01     -0.343677D+01

 Dipole polarizability, Alpha (input orientation).
 (esu units = cm**3 , SI units = C**2 m**2 J**-1)
 Alpha(0;0):
               (au)            (10**-24 esu)      (10**-40 SI)
   iso        0.173443D+02      0.257016D+01      0.285969D+01
   aniso      0.513104D+01      0.760342D+00      0.845994D+00
   xx         0.177180D+02      0.262554D+01      0.292131D+01
   yx        -0.603771D+00     -0.894697D-01     -0.995485D-01
   yy         0.172943D+02      0.256275D+01      0.285144D+01
   zx         0.166381D+01      0.246551D+00      0.274325D+00
   zy         0.234938D+01      0.348143D+00      0.387361D+00
   zz         0.170206D+02      0.252220D+01      0.280633D+01

 ----------------------------------------------------------------------

 Dipole orientation:
     6         -1.41367273          0.02298401         -0.77113037
     1         -0.54647562          1.68257247         -1.65118464
     1         -1.72510738          0.46292421          1.24832631
     1         -3.26713235         -0.24337371         -1.65118768
     7          0.17178329         -2.21668375         -1.31560384
     1          1.96404669         -2.01721280         -0.61397718
     1         -0.61198922         -3.84078297         -0.61397763

 Electric dipole moment (dipole orientation):
 (Debye = 10**-18 statcoulomb cm , SI units = C m)
                  (au)            (Debye)         (10**-30 SI)
   Tot        0.566818D+00      0.144071D+01      0.480568D+01
   x          0.000000D+00      0.000000D+00      0.000000D+00
   y          0.000000D+00      0.000000D+00      0.000000D+00
   z          0.566818D+00      0.144071D+01      0.480568D+01

 Dipole polarizability, Alpha (dipole orientation).
 (esu units = cm**3 , SI units = C**2 m**2 J**-1)
 Alpha(0;0):
               (au)            (10**-24 esu)      (10**-40 SI)
   iso        0.173443D+02      0.257016D+01      0.285969D+01
   aniso      0.513104D+01      0.760342D+00      0.845994D+00
   xx         0.187048D+02      0.277177D+01      0.308400D+01
   yx        -0.789322D+00     -0.116965D+00     -0.130142D+00
   yy         0.192611D+02      0.285419D+01      0.317572D+01
   zx        -0.826206D-01     -0.122431D-01     -0.136223D-01
   zy         0.116713D+00      0.172951D-01      0.192434D-01
   zz         0.140671D+02      0.208453D+01      0.231936D+01

 ----------------------------------------------------------------------
 Unable to Open any file for archive entry.
 1\1\GINC-NODE318\Freq\RB3LYP\3-21G\C1H5N1\JULIUS\18-Jul-2022\0\\#N Geo
 m=AllCheck Guess=TCheck SCRF=Check GenChk RB3LYP/3-21G Freq\\title\\0,
 1\C,-0.8401214201,-0.1420828383,-0.0173748689\H,-0.4950697283,-1.18100
 80215,0.0001960955\H,-0.5261679603,0.3009216034,-0.9809895534\H,-1.934
 6789298,-0.1616995555,-0.0002314366\N,-0.3566555793,0.5412469162,1.203
 6451595\H,0.6656938276,0.5400426703,1.2611300554\H,-0.6973901979,1.505
 1692169,1.2607245484\\Version=EM64L-G16RevC.01\State=1-A\HF=-95.324013
 \RMSD=2.279e-10\RMSF=8.826e-05\ZeroPoint=0.0637845\Thermal=0.0672251\E
 Tot=-95.2567879\HTot=-95.2558437\GTot=-95.283166\Dipole=0.2290236,0.32
 3288,-0.4053583\DipoleDeriv=0.1992377,0.0995782,0.0851441,0.0995439,0.
 269397,0.120417,0.0033219,0.0048563,0.5213321,0.0647398,0.0798648,-0.0
 017455,0.0595537,-0.1536979,-0.0129761,-0.0210921,-0.0123114,0.0315742
 ,0.001715,-0.0574087,0.0461641,-0.057417,-0.0386884,0.0650418,0.026182
 8,0.0368215,-0.3330295,-0.1732713,-0.0242572,-0.0117339,-0.0039514,0.0
 843113,-0.0059728,-0.0046866,-0.0240082,0.0315761,-0.2043927,-0.098760
 7,0.036553,-0.0987642,-0.2739214,0.051362,0.0281714,0.0395247,-0.76059
 87,-0.0549524,-0.0069381,-0.0569954,-0.0701426,0.1672076,-0.1232795,0.
 0655903,-0.0802004,0.2546032,0.1669239,0.0079217,-0.0973862,0.0711777,
 -0.0546082,-0.0945923,-0.0974877,0.0353175,0.2545427\Polar=17.7180468,
 -0.6037714,17.2942982,1.6638067,2.3493822,17.0206478\Quadrupole=0.9162
 392,0.9326194,-1.8488586,0.022516,0.5868981,0.8277432\PG=C01 [X(C1H5N1
 )]\NImag=0\\0.57515183,-0.03167515,0.55282620,-0.01897427,-0.02685416,
 0.46400267,-0.07862028,0.08170170,-0.00110887,0.08093114,0.07916722,-0
 .27942598,0.01058851,-0.08744063,0.30866964,-0.00444189,0.01612116,-0.
 04990764,0.00539307,-0.00641995,0.06104505,-0.07734247,-0.02900942,0.0
 5686772,0.00372774,0.00607035,-0.01014378,0.07718423,-0.02900847,-0.09
 772171,0.08025343,-0.01205031,-0.01528021,0.02887175,0.03470974,0.1015
 7393,0.05911955,0.08343376,-0.20714792,0.00145001,0.00278464,-0.001004
 51,-0.06315434,-0.08911608,0.24154587,-0.30768216,-0.00149001,0.010254
 12,-0.01071076,-0.00020363,0.00108792,-0.01132260,0.00077558,0.0021406
 2,0.33833994,0.00104571,-0.05037381,0.00247165,0.03461693,0.00140760,-
 0.00118357,-0.01733801,-0.00024219,0.00228554,0.00319954,0.05126872,0.
 01657901,0.00116455,-0.04989799,-0.00149138,0.00063235,-0.00071391,0.0
 3060263,0.00002209,-0.00099220,-0.00773798,0.00295847,0.06103722,-0.10
 521318,-0.00354654,-0.05657048,0.00491587,0.00602399,0.01200849,0.0064
 6928,0.00356002,0.00036131,-0.01026784,-0.01932127,-0.03572056,0.59448
 956,-0.00353306,-0.10774234,-0.07990962,-0.01396049,-0.01496390,-0.033
 64630,0.00355389,0.00896824,0.00049439,0.00066974,0.00023487,0.0001491
 9,-0.11119247,0.51626824,-0.02453067,-0.03465862,-0.13378894,-0.002603
 39,-0.00678190,-0.00706703,-0.01425589,-0.02015006,-0.03398758,-0.0055
 3361,-0.00471792,-0.00708209,0.10184192,0.14364708,0.22578786,-0.01278
 151,-0.00110142,0.00904755,0.00016540,-0.00071893,-0.00030407,0.001507
 88,0.00140797,0.00034259,0.00162639,-0.00182930,-0.00275215,-0.3959679
 1,0.02537634,-0.04447530,0.42128482,-0.02168089,0.00085933,0.00368738,
 -0.00032129,-0.00036731,0.00044510,0.00121508,0.00048521,-0.00015412,-
 0.00218030,-0.00207612,-0.00478781,-0.00709523,-0.05061041,-0.02667347
 ,-0.01469819,0.05475011,-0.03791431,-0.00258300,-0.01163597,0.00065206
 ,0.00056420,0.00130065,-0.00094783,0.00076046,0.00079296,-0.00052636,-
 0.00261689,-0.00365182,0.00227940,-0.02478445,-0.02193221,0.03414020,0
 .02359869,0.03760850,0.00648777,-0.01487916,0.00048422,-0.00040911,-0.
 00289838,-0.00359975,-0.00022406,0.00060547,-0.00025974,0.00001702,-0.
 00037360,0.00052043,-0.09442579,0.09908605,-0.01044306,-0.01583507,0.0
 4476082,0.00231685,0.10438923,0.00568464,-0.01842169,0.00976281,-0.002
 54591,-0.00003983,-0.00418819,0.00079836,0.00221674,0.00027187,-0.0007
 7092,-0.00021909,-0.00013885,0.13157150,-0.35215469,-0.05066510,-0.008
 43647,-0.00304080,0.00506098,-0.12630120,0.37165936,0.01016257,-0.0366
 2370,-0.01162422,-0.00229149,-0.00136785,-0.00365260,0.00103149,-0.000
 64159,0.00079338,0.00031529,0.00080272,0.00130079,-0.02420009,-0.00595
 029,-0.02193000,0.00400118,0.00388423,-0.00248211,0.01098104,0.0398964
 8,0.03759476\\0.00000476,0.00000676,-0.00004008,-0.00002530,0.00003606
 ,-0.00001434,-0.00000927,-0.00001308,0.00004792,0.00004245,-0.00001190
 ,-0.00001432,-0.00017326,-0.00024469,0.00011527,0.00013441,0.00007511,
 -0.00004721,0.00002621,0.00015174,-0.00004725\\\@
 The archive entry for this job was punched.


 DESK:  A WASTEBASKET WITH DRAWERS.
 Job cpu time:       0 days  0 hours  0 minutes 12.8 seconds.
 Elapsed time:       0 days  0 hours  0 minutes 14.2 seconds.
 File lengths (MBytes):  RWF=      6 Int=      0 D2E=      0 Chk=      1 Scr=      1
 Normal termination of Gaussian 16 at Mon Jul 18 13:38:36 2022.
